# vtk DataFile Version 4.1
CantileverFEM
ASCII

DATASET UNSTRUCTURED_GRID
POINTS 1071 double
0 0 0.0
2 0 0.0
4 0 0.0
6 0 0.0
8 0 0.0
10 0 0.0
12 0 0.0
14 0 0.0
16 0 0.0
18 0 0.0
20 0 0.0
22 0 0.0
24 0 0.0
26 0 0.0
28 0 0.0
30 0 0.0
32 0 0.0
34 0 0.0
36 0 0.0
38 0 0.0
40 0 0.0
42 0 0.0
44 0 0.0
46 0 0.0
48 0 0.0
50 0 0.0
52 0 0.0
54 0 0.0
56 0 0.0
58 0 0.0
60 0 0.0
62 0 0.0
64 0 0.0
66 0 0.0
68 0 0.0
70 0 0.0
72 0 0.0
74 0 0.0
76 0 0.0
78 0 0.0
80 0 0.0
82 0 0.0
84 0 0.0
86 0 0.0
88 0 0.0
90 0 0.0
92 0 0.0
94 0 0.0
96 0 0.0
98 0 0.0
100 0 0.0
0 1 0.0
2 1 0.0
4 1 0.0
6 1 0.0
8 1 0.0
10 1 0.0
12 1 0.0
14 1 0.0
16 1 0.0
18 1 0.0
20 1 0.0
22 1 0.0
24 1 0.0
26 1 0.0
28 1 0.0
30 1 0.0
32 1 0.0
34 1 0.0
36 1 0.0
38 1 0.0
40 1 0.0
42 1 0.0
44 1 0.0
46 1 0.0
48 1 0.0
50 1 0.0
52 1 0.0
54 1 0.0
56 1 0.0
58 1 0.0
60 1 0.0
62 1 0.0
64 1 0.0
66 1 0.0
68 1 0.0
70 1 0.0
72 1 0.0
74 1 0.0
76 1 0.0
78 1 0.0
80 1 0.0
82 1 0.0
84 1 0.0
86 1 0.0
88 1 0.0
90 1 0.0
92 1 0.0
94 1 0.0
96 1 0.0
98 1 0.0
100 1 0.0
0 2 0.0
2 2 0.0
4 2 0.0
6 2 0.0
8 2 0.0
10 2 0.0
12 2 0.0
14 2 0.0
16 2 0.0
18 2 0.0
20 2 0.0
22 2 0.0
24 2 0.0
26 2 0.0
28 2 0.0
30 2 0.0
32 2 0.0
34 2 0.0
36 2 0.0
38 2 0.0
40 2 0.0
42 2 0.0
44 2 0.0
46 2 0.0
48 2 0.0
50 2 0.0
52 2 0.0
54 2 0.0
56 2 0.0
58 2 0.0
60 2 0.0
62 2 0.0
64 2 0.0
66 2 0.0
68 2 0.0
70 2 0.0
72 2 0.0
74 2 0.0
76 2 0.0
78 2 0.0
80 2 0.0
82 2 0.0
84 2 0.0
86 2 0.0
88 2 0.0
90 2 0.0
92 2 0.0
94 2 0.0
96 2 0.0
98 2 0.0
100 2 0.0
0 3 0.0
2 3 0.0
4 3 0.0
6 3 0.0
8 3 0.0
10 3 0.0
12 3 0.0
14 3 0.0
16 3 0.0
18 3 0.0
20 3 0.0
22 3 0.0
24 3 0.0
26 3 0.0
28 3 0.0
30 3 0.0
32 3 0.0
34 3 0.0
36 3 0.0
38 3 0.0
40 3 0.0
42 3 0.0
44 3 0.0
46 3 0.0
48 3 0.0
50 3 0.0
52 3 0.0
54 3 0.0
56 3 0.0
58 3 0.0
60 3 0.0
62 3 0.0
64 3 0.0
66 3 0.0
68 3 0.0
70 3 0.0
72 3 0.0
74 3 0.0
76 3 0.0
78 3 0.0
80 3 0.0
82 3 0.0
84 3 0.0
86 3 0.0
88 3 0.0
90 3 0.0
92 3 0.0
94 3 0.0
96 3 0.0
98 3 0.0
100 3 0.0
0 4 0.0
2 4 0.0
4 4 0.0
6 4 0.0
8 4 0.0
10 4 0.0
12 4 0.0
14 4 0.0
16 4 0.0
18 4 0.0
20 4 0.0
22 4 0.0
24 4 0.0
26 4 0.0
28 4 0.0
30 4 0.0
32 4 0.0
34 4 0.0
36 4 0.0
38 4 0.0
40 4 0.0
42 4 0.0
44 4 0.0
46 4 0.0
48 4 0.0
50 4 0.0
52 4 0.0
54 4 0.0
56 4 0.0
58 4 0.0
60 4 0.0
62 4 0.0
64 4 0.0
66 4 0.0
68 4 0.0
70 4 0.0
72 4 0.0
74 4 0.0
76 4 0.0
78 4 0.0
80 4 0.0
82 4 0.0
84 4 0.0
86 4 0.0
88 4 0.0
90 4 0.0
92 4 0.0
94 4 0.0
96 4 0.0
98 4 0.0
100 4 0.0
0 5 0.0
2 5 0.0
4 5 0.0
6 5 0.0
8 5 0.0
10 5 0.0
12 5 0.0
14 5 0.0
16 5 0.0
18 5 0.0
20 5 0.0
22 5 0.0
24 5 0.0
26 5 0.0
28 5 0.0
30 5 0.0
32 5 0.0
34 5 0.0
36 5 0.0
38 5 0.0
40 5 0.0
42 5 0.0
44 5 0.0
46 5 0.0
48 5 0.0
50 5 0.0
52 5 0.0
54 5 0.0
56 5 0.0
58 5 0.0
60 5 0.0
62 5 0.0
64 5 0.0
66 5 0.0
68 5 0.0
70 5 0.0
72 5 0.0
74 5 0.0
76 5 0.0
78 5 0.0
80 5 0.0
82 5 0.0
84 5 0.0
86 5 0.0
88 5 0.0
90 5 0.0
92 5 0.0
94 5 0.0
96 5 0.0
98 5 0.0
100 5 0.0
0 6 0.0
2 6 0.0
4 6 0.0
6 6 0.0
8 6 0.0
10 6 0.0
12 6 0.0
14 6 0.0
16 6 0.0
18 6 0.0
20 6 0.0
22 6 0.0
24 6 0.0
26 6 0.0
28 6 0.0
30 6 0.0
32 6 0.0
34 6 0.0
36 6 0.0
38 6 0.0
40 6 0.0
42 6 0.0
44 6 0.0
46 6 0.0
48 6 0.0
50 6 0.0
52 6 0.0
54 6 0.0
56 6 0.0
58 6 0.0
60 6 0.0
62 6 0.0
64 6 0.0
66 6 0.0
68 6 0.0
70 6 0.0
72 6 0.0
74 6 0.0
76 6 0.0
78 6 0.0
80 6 0.0
82 6 0.0
84 6 0.0
86 6 0.0
88 6 0.0
90 6 0.0
92 6 0.0
94 6 0.0
96 6 0.0
98 6 0.0
100 6 0.0
0 7 0.0
2 7 0.0
4 7 0.0
6 7 0.0
8 7 0.0
10 7 0.0
12 7 0.0
14 7 0.0
16 7 0.0
18 7 0.0
20 7 0.0
22 7 0.0
24 7 0.0
26 7 0.0
28 7 0.0
30 7 0.0
32 7 0.0
34 7 0.0
36 7 0.0
38 7 0.0
40 7 0.0
42 7 0.0
44 7 0.0
46 7 0.0
48 7 0.0
50 7 0.0
52 7 0.0
54 7 0.0
56 7 0.0
58 7 0.0
60 7 0.0
62 7 0.0
64 7 0.0
66 7 0.0
68 7 0.0
70 7 0.0
72 7 0.0
74 7 0.0
76 7 0.0
78 7 0.0
80 7 0.0
82 7 0.0
84 7 0.0
86 7 0.0
88 7 0.0
90 7 0.0
92 7 0.0
94 7 0.0
96 7 0.0
98 7 0.0
100 7 0.0
0 8 0.0
2 8 0.0
4 8 0.0
6 8 0.0
8 8 0.0
10 8 0.0
12 8 0.0
14 8 0.0
16 8 0.0
18 8 0.0
20 8 0.0
22 8 0.0
24 8 0.0
26 8 0.0
28 8 0.0
30 8 0.0
32 8 0.0
34 8 0.0
36 8 0.0
38 8 0.0
40 8 0.0
42 8 0.0
44 8 0.0
46 8 0.0
48 8 0.0
50 8 0.0
52 8 0.0
54 8 0.0
56 8 0.0
58 8 0.0
60 8 0.0
62 8 0.0
64 8 0.0
66 8 0.0
68 8 0.0
70 8 0.0
72 8 0.0
74 8 0.0
76 8 0.0
78 8 0.0
80 8 0.0
82 8 0.0
84 8 0.0
86 8 0.0
88 8 0.0
90 8 0.0
92 8 0.0
94 8 0.0
96 8 0.0
98 8 0.0
100 8 0.0
0 9 0.0
2 9 0.0
4 9 0.0
6 9 0.0
8 9 0.0
10 9 0.0
12 9 0.0
14 9 0.0
16 9 0.0
18 9 0.0
20 9 0.0
22 9 0.0
24 9 0.0
26 9 0.0
28 9 0.0
30 9 0.0
32 9 0.0
34 9 0.0
36 9 0.0
38 9 0.0
40 9 0.0
42 9 0.0
44 9 0.0
46 9 0.0
48 9 0.0
50 9 0.0
52 9 0.0
54 9 0.0
56 9 0.0
58 9 0.0
60 9 0.0
62 9 0.0
64 9 0.0
66 9 0.0
68 9 0.0
70 9 0.0
72 9 0.0
74 9 0.0
76 9 0.0
78 9 0.0
80 9 0.0
82 9 0.0
84 9 0.0
86 9 0.0
88 9 0.0
90 9 0.0
92 9 0.0
94 9 0.0
96 9 0.0
98 9 0.0
100 9 0.0
0 10 0.0
2 10 0.0
4 10 0.0
6 10 0.0
8 10 0.0
10 10 0.0
12 10 0.0
14 10 0.0
16 10 0.0
18 10 0.0
20 10 0.0
22 10 0.0
24 10 0.0
26 10 0.0
28 10 0.0
30 10 0.0
32 10 0.0
34 10 0.0
36 10 0.0
38 10 0.0
40 10 0.0
42 10 0.0
44 10 0.0
46 10 0.0
48 10 0.0
50 10 0.0
52 10 0.0
54 10 0.0
56 10 0.0
58 10 0.0
60 10 0.0
62 10 0.0
64 10 0.0
66 10 0.0
68 10 0.0
70 10 0.0
72 10 0.0
74 10 0.0
76 10 0.0
78 10 0.0
80 10 0.0
82 10 0.0
84 10 0.0
86 10 0.0
88 10 0.0
90 10 0.0
92 10 0.0
94 10 0.0
96 10 0.0
98 10 0.0
100 10 0.0
0 11 0.0
2 11 0.0
4 11 0.0
6 11 0.0
8 11 0.0
10 11 0.0
12 11 0.0
14 11 0.0
16 11 0.0
18 11 0.0
20 11 0.0
22 11 0.0
24 11 0.0
26 11 0.0
28 11 0.0
30 11 0.0
32 11 0.0
34 11 0.0
36 11 0.0
38 11 0.0
40 11 0.0
42 11 0.0
44 11 0.0
46 11 0.0
48 11 0.0
50 11 0.0
52 11 0.0
54 11 0.0
56 11 0.0
58 11 0.0
60 11 0.0
62 11 0.0
64 11 0.0
66 11 0.0
68 11 0.0
70 11 0.0
72 11 0.0
74 11 0.0
76 11 0.0
78 11 0.0
80 11 0.0
82 11 0.0
84 11 0.0
86 11 0.0
88 11 0.0
90 11 0.0
92 11 0.0
94 11 0.0
96 11 0.0
98 11 0.0
100 11 0.0
0 12 0.0
2 12 0.0
4 12 0.0
6 12 0.0
8 12 0.0
10 12 0.0
12 12 0.0
14 12 0.0
16 12 0.0
18 12 0.0
20 12 0.0
22 12 0.0
24 12 0.0
26 12 0.0
28 12 0.0
30 12 0.0
32 12 0.0
34 12 0.0
36 12 0.0
38 12 0.0
40 12 0.0
42 12 0.0
44 12 0.0
46 12 0.0
48 12 0.0
50 12 0.0
52 12 0.0
54 12 0.0
56 12 0.0
58 12 0.0
60 12 0.0
62 12 0.0
64 12 0.0
66 12 0.0
68 12 0.0
70 12 0.0
72 12 0.0
74 12 0.0
76 12 0.0
78 12 0.0
80 12 0.0
82 12 0.0
84 12 0.0
86 12 0.0
88 12 0.0
90 12 0.0
92 12 0.0
94 12 0.0
96 12 0.0
98 12 0.0
100 12 0.0
0 13 0.0
2 13 0.0
4 13 0.0
6 13 0.0
8 13 0.0
10 13 0.0
12 13 0.0
14 13 0.0
16 13 0.0
18 13 0.0
20 13 0.0
22 13 0.0
24 13 0.0
26 13 0.0
28 13 0.0
30 13 0.0
32 13 0.0
34 13 0.0
36 13 0.0
38 13 0.0
40 13 0.0
42 13 0.0
44 13 0.0
46 13 0.0
48 13 0.0
50 13 0.0
52 13 0.0
54 13 0.0
56 13 0.0
58 13 0.0
60 13 0.0
62 13 0.0
64 13 0.0
66 13 0.0
68 13 0.0
70 13 0.0
72 13 0.0
74 13 0.0
76 13 0.0
78 13 0.0
80 13 0.0
82 13 0.0
84 13 0.0
86 13 0.0
88 13 0.0
90 13 0.0
92 13 0.0
94 13 0.0
96 13 0.0
98 13 0.0
100 13 0.0
0 14 0.0
2 14 0.0
4 14 0.0
6 14 0.0
8 14 0.0
10 14 0.0
12 14 0.0
14 14 0.0
16 14 0.0
18 14 0.0
20 14 0.0
22 14 0.0
24 14 0.0
26 14 0.0
28 14 0.0
30 14 0.0
32 14 0.0
34 14 0.0
36 14 0.0
38 14 0.0
40 14 0.0
42 14 0.0
44 14 0.0
46 14 0.0
48 14 0.0
50 14 0.0
52 14 0.0
54 14 0.0
56 14 0.0
58 14 0.0
60 14 0.0
62 14 0.0
64 14 0.0
66 14 0.0
68 14 0.0
70 14 0.0
72 14 0.0
74 14 0.0
76 14 0.0
78 14 0.0
80 14 0.0
82 14 0.0
84 14 0.0
86 14 0.0
88 14 0.0
90 14 0.0
92 14 0.0
94 14 0.0
96 14 0.0
98 14 0.0
100 14 0.0
0 15 0.0
2 15 0.0
4 15 0.0
6 15 0.0
8 15 0.0
10 15 0.0
12 15 0.0
14 15 0.0
16 15 0.0
18 15 0.0
20 15 0.0
22 15 0.0
24 15 0.0
26 15 0.0
28 15 0.0
30 15 0.0
32 15 0.0
34 15 0.0
36 15 0.0
38 15 0.0
40 15 0.0
42 15 0.0
44 15 0.0
46 15 0.0
48 15 0.0
50 15 0.0
52 15 0.0
54 15 0.0
56 15 0.0
58 15 0.0
60 15 0.0
62 15 0.0
64 15 0.0
66 15 0.0
68 15 0.0
70 15 0.0
72 15 0.0
74 15 0.0
76 15 0.0
78 15 0.0
80 15 0.0
82 15 0.0
84 15 0.0
86 15 0.0
88 15 0.0
90 15 0.0
92 15 0.0
94 15 0.0
96 15 0.0
98 15 0.0
100 15 0.0
0 16 0.0
2 16 0.0
4 16 0.0
6 16 0.0
8 16 0.0
10 16 0.0
12 16 0.0
14 16 0.0
16 16 0.0
18 16 0.0
20 16 0.0
22 16 0.0
24 16 0.0
26 16 0.0
28 16 0.0
30 16 0.0
32 16 0.0
34 16 0.0
36 16 0.0
38 16 0.0
40 16 0.0
42 16 0.0
44 16 0.0
46 16 0.0
48 16 0.0
50 16 0.0
52 16 0.0
54 16 0.0
56 16 0.0
58 16 0.0
60 16 0.0
62 16 0.0
64 16 0.0
66 16 0.0
68 16 0.0
70 16 0.0
72 16 0.0
74 16 0.0
76 16 0.0
78 16 0.0
80 16 0.0
82 16 0.0
84 16 0.0
86 16 0.0
88 16 0.0
90 16 0.0
92 16 0.0
94 16 0.0
96 16 0.0
98 16 0.0
100 16 0.0
0 17 0.0
2 17 0.0
4 17 0.0
6 17 0.0
8 17 0.0
10 17 0.0
12 17 0.0
14 17 0.0
16 17 0.0
18 17 0.0
20 17 0.0
22 17 0.0
24 17 0.0
26 17 0.0
28 17 0.0
30 17 0.0
32 17 0.0
34 17 0.0
36 17 0.0
38 17 0.0
40 17 0.0
42 17 0.0
44 17 0.0
46 17 0.0
48 17 0.0
50 17 0.0
52 17 0.0
54 17 0.0
56 17 0.0
58 17 0.0
60 17 0.0
62 17 0.0
64 17 0.0
66 17 0.0
68 17 0.0
70 17 0.0
72 17 0.0
74 17 0.0
76 17 0.0
78 17 0.0
80 17 0.0
82 17 0.0
84 17 0.0
86 17 0.0
88 17 0.0
90 17 0.0
92 17 0.0
94 17 0.0
96 17 0.0
98 17 0.0
100 17 0.0
0 18 0.0
2 18 0.0
4 18 0.0
6 18 0.0
8 18 0.0
10 18 0.0
12 18 0.0
14 18 0.0
16 18 0.0
18 18 0.0
20 18 0.0
22 18 0.0
24 18 0.0
26 18 0.0
28 18 0.0
30 18 0.0
32 18 0.0
34 18 0.0
36 18 0.0
38 18 0.0
40 18 0.0
42 18 0.0
44 18 0.0
46 18 0.0
48 18 0.0
50 18 0.0
52 18 0.0
54 18 0.0
56 18 0.0
58 18 0.0
60 18 0.0
62 18 0.0
64 18 0.0
66 18 0.0
68 18 0.0
70 18 0.0
72 18 0.0
74 18 0.0
76 18 0.0
78 18 0.0
80 18 0.0
82 18 0.0
84 18 0.0
86 18 0.0
88 18 0.0
90 18 0.0
92 18 0.0
94 18 0.0
96 18 0.0
98 18 0.0
100 18 0.0
0 19 0.0
2 19 0.0
4 19 0.0
6 19 0.0
8 19 0.0
10 19 0.0
12 19 0.0
14 19 0.0
16 19 0.0
18 19 0.0
20 19 0.0
22 19 0.0
24 19 0.0
26 19 0.0
28 19 0.0
30 19 0.0
32 19 0.0
34 19 0.0
36 19 0.0
38 19 0.0
40 19 0.0
42 19 0.0
44 19 0.0
46 19 0.0
48 19 0.0
50 19 0.0
52 19 0.0
54 19 0.0
56 19 0.0
58 19 0.0
60 19 0.0
62 19 0.0
64 19 0.0
66 19 0.0
68 19 0.0
70 19 0.0
72 19 0.0
74 19 0.0
76 19 0.0
78 19 0.0
80 19 0.0
82 19 0.0
84 19 0.0
86 19 0.0
88 19 0.0
90 19 0.0
92 19 0.0
94 19 0.0
96 19 0.0
98 19 0.0
100 19 0.0
0 20 0.0
2 20 0.0
4 20 0.0
6 20 0.0
8 20 0.0
10 20 0.0
12 20 0.0
14 20 0.0
16 20 0.0
18 20 0.0
20 20 0.0
22 20 0.0
24 20 0.0
26 20 0.0
28 20 0.0
30 20 0.0
32 20 0.0
34 20 0.0
36 20 0.0
38 20 0.0
40 20 0.0
42 20 0.0
44 20 0.0
46 20 0.0
48 20 0.0
50 20 0.0
52 20 0.0
54 20 0.0
56 20 0.0
58 20 0.0
[...]
POINT_DATA 1071
VECTORS displacements double
0 0 0.0
-0.14671800959312 -0.103548280625709 0.0
-0.270198626757185 -0.169503507643494 0.0
-0.393705932206903 -0.25212112546026 0.0
-0.517150858148128 -0.355354603868815 0.0
-0.639300074347053 -0.48220747110031 0.0
-0.759560035121565 -0.633004186377786 0.0
-0.877511975184077 -0.807616720237978 0.0
-0.992940746858697 -1.00561348502203 0.0
-1.1057347588163 -1.226478780395 0.0
-1.21584252149378 -1.46966521853799 0.0
-1.32324189725693 -1.73462023473274 0.0
-1.4279245138593 -2.02079264154975 0.0
-1.52988776106556 -2.32763394640474 0.0
-1.62913117490902 -2.65459774846552 0.0
-1.72565492597583 -3.00113895288623 0.0
-1.8194592745756 -3.36671317448577 0.0
-1.91054441735074 -3.75077637656547 0.0
-1.99891047245065 -4.15278467650098 0.0
-2.08455750125904 -4.57219425059775 0.0
-2.16748553233299 -5.0084612909717 0.0
-2.24769457964022 -5.46104198721646 0.0
-2.32518465611526 -5.92939251899423 0.0
-2.39995578573054 -6.41296905363385 0.0
-2.47200801733641 -6.91122774736974 0.0
-2.54134144311195 -7.42362475177523 0.0
-2.60795622394257 -7.94961622940288 0.0
-2.67185262317175 -8.4886583853553 0.0
-2.73303104838284 -9.04020752484143 0.0
-2.79149209723362 -9.60372015077288 0.0
-2.84723659653463 -10.1786531197169 0.0
-2.90026561180582 -10.7644638778942 0.0
-2.9505803848809 -11.3606107989257 0.0
-2.9981821265765 -11.9665536370654 0.0
-3.04307154669974 -12.5817540856425 0.0
-3.08524794263001 -13.2056763771581 0.0
-3.12470759251233 -13.8377877587138 0.0
-3.16144112227122 -14.477558495701 0.0
-3.19542947142631 -15.1244607631749 0.0
-3.2266381453987 -15.7779653475282 0.0
-3.25500975089831 -16.4375345042282 0.0
-3.28045559188538 -17.1026087021452 0.0
-3.30284865772238 -17.7725846467018 0.0
-3.32202293618492 -18.4467826072097 0.0
-3.33778759635594 -19.124403905937 0.0
-3.34996836229609 -19.8044862447054 0.0
-3.35848999485214 -20.4858772572702 0.0
-3.36350905011599 -21.1672671625643 0.0
-3.36558857719623 -21.8473498960182 0.0
-3.3658564827449 -22.5252514241783 0.0
-3.36572891913042 -23.2013681882695 0.0
0 0 0.0
-0.111834636385334 -0.0725582756510965 0.0
-0.233850903875872 -0.144640821660031 0.0
-0.347878412287049 -0.226563641603307 0.0
-0.460117377464919 -0.330272599685333 0.0
-0.570493182549152 -0.457469492908143 0.0
-0.678874692529139 -0.608734567214421 0.0
-0.785072569865547 -0.783851279959817 0.0
-0.888962240853648 -0.982379997666032 0.0
-0.990471302658851 -1.20378942427708 0.0
-1.08956233184275 -1.44752593640643 0.0
-1.18621761884204 -1.71303341897825 0.0
-1.28042954496843 -1.99975917647363 0.0
-1.37219520150175 -2.30715407911495 0.0
-1.46151367423644 -2.63467150560475 0.0
-1.54838479276526 -2.98176630188004 0.0
-1.63280860935776 -3.34789408000575 0.0
-1.71478520948853 -3.73251081410458 0.0
-1.79431465819363 -4.13507263206362 0.0
-1.87139699478897 -4.55503571715984 0.0
-1.94603224100283 -4.99185626513726 0.0
-2.01822041084584 -5.44499046661763 0.0
-2.08796151980895 -5.91389450009656 0.0
-2.15525559418289 -6.39802452941439 0.0
-2.22010268212832 -6.8968367043564 0.0
-2.28250286810467 -7.40978716600976 0.0
-2.34245629182855 -7.93633206101676 0.0
-2.39996317198276 -8.47592757170088 0.0
-2.45502383301294 -9.02802997264051 0.0
-2.50763872981705 -9.59209572873825 0.0
-2.55780845891693 -10.1675816548727 0.0
-2.60553373439127 -10.7539451617766 0.0
-2.65081529067801 -11.3506446145071 0.0
-2.69365365037949 -11.9571398241971 0.0
-2.73404866186838 -12.5728926725224 0.0
-2.77199866891034 -13.1973678178001 0.0
-2.8074991270875 -13.8300333303236 0.0
-2.84054044302729 -14.4703609211549 0.0
-2.87110481303762 -15.1178251229674 0.0
-2.89916193767745 -15.7719003138077 0.0
-2.92466379132153 -16.4320538342709 0.0
-2.94753928497761 -17.0977327211698 0.0
-2.96769085948668 -17.7683410740775 0.0
-2.98499690196263 -18.4432055035199 0.0
-2.99932621422058 -19.1215288129704 0.0
-3.01057270917254 -19.8023390288505 0.0
-3.01871794178962 -20.4844544889209 0.0
-3.02392227162232 -21.1665077159236 0.0
-3.02662380255315 -21.8471053180256 0.0
-3.0275756880032 -22.5252661411977 0.0
-3.0277573517572 -23.2013359290106 0.0
0 0 0.0
-0.0930743673614782 -0.0513745996702332 0.0
-0.198770879976475 -0.120379516546289 0.0
-0.303185252592917 -0.203537266739044 0.0
-0.404138353334278 -0.307555146019516 0.0
-0.502888992267622 -0.435238051036101 0.0
-0.599514093766937 -0.586966312617944 0.0
-0.69403611982551 -0.762566122184653 0.0
-0.786430608443113 -0.961583425278513 0.0
-0.876676942053372 -1.18348558890991 0.0
-0.964761564266904 -1.42771643980206 0.0
-1.05067710620868 -1.69371895354082 0.0
-1.13441995049359 -1.98093995782894 0.0
-1.21598849125056 -2.28883015568 0.0
-1.29538208937231 -2.61684286998123 0.0
-1.37260052815753 -2.96443293705235 0.0
-1.44764375521205 -3.33105597221916 0.0
-1.52051177163105 -3.71616795493032 0.0
-1.5912045899692 -4.11922501711583 0.0
-1.65972222151467 -4.53968334443031 0.0
-1.72606467484692 -4.97699913361295 0.0
-1.79023195838654 -5.43062857514742 0.0
-1.85222408456923 -5.90002784625627 0.0
-1.91204107534431 -6.38465310809042 0.0
-1.96968296945378 -6.88396050578061 0.0
-2.02514983208265 -7.39740617301062 0.0
-2.07844176719317 -7.92444624532621 0.0
-2.129558932087 -8.46453688933292 0.0
-2.17850155219465 -9.01713435872992 0.0
-2.22526993129142 -9.5816950929374 0.0
-2.26986444760101 -10.1576758796547 0.0
-2.31228551867684 -10.7445341080571 0.0
-2.35253350649905 -11.341728142223 0.0
-2.39060851786822 -11.9487178402525 0.0
-2.42651003335524 -12.56496522517 0.0
-2.46023627156947 -13.1899352651501 0.0
-2.49178316809953 -13.8230966206532 0.0
-2.52114282969225 -14.4639220319458 0.0
-2.54830133379403 -15.1118877090441 0.0
-2.5732358179159 -15.7664706019676 0.0
-2.59591100377903 -16.4271417521545 0.0
-2.61627572101239 -17.0933531272076 0.0
-2.63426075332435 -17.764514712601 0.0
-2.64978052309566 -18.439958893179 0.0
-2.66274268651268 -19.1188916835194 0.0
-2.67307106297903 -19.8003373315332 0.0
-2.6807469204483 -20.4830968749255 0.0
-2.6858681232459 -21.1657649020755 0.0
-2.68871096332827 -21.8468852273187 0.0
-2.68977910194464 -22.5253690097335 0.0
-2.68997807016588 -23.2012348686991 0.0
0 0 0.0
-0.0784016326824305 -0.0363186152109293 0.0
-0.168305565605894 -0.0997790642075938 0.0
-0.260030357900087 -0.182750522378404 0.0
-0.349489934856792 -0.287311170299594 0.0
-0.436508130209667 -0.41546494673703 0.0
-0.521398981959952 -0.567680556167297 0.0
-0.604272658315619 -0.743744443922798 0.0
-0.685193796132393 -0.943215198162421 0.0
-0.764190497333762 -1.16556273372484 0.0
-0.841275736829553 -1.41023466951231 0.0
-0.916454935803416 -1.67667596690676 0.0
-0.98973020057998 -1.96433466764533 0.0
-1.06110221886267 -2.27266208335678 0.0
-1.13057114085549 -2.60111182981057 0.0
-1.19813694579223 -2.94913886854164 0.0
-1.26379958019388 -3.31619886289173 0.0
-1.32755899979537 -3.70174780732837 0.0
-1.38941517638682 -4.10524183658023 0.0
-1.44936809462076 -4.52613713543051 0.0
-1.50741774788647 -4.96388989915688 0.0
-1.56356413584004 -5.41795631697989 0.0
-1.61780726395915 -5.88779256499511 0.0
-1.67014714495607 -6.37285480299929 0.0
-1.72058380188718 -6.87259917404067 0.0
-1.76911727285699 -7.38648180836406 0.0
-1.81574761711319 -7.91395883593344 0.0
-1.86047492191767 -8.4544864146726 0.0
-1.90329930868212 -9.00752078542561 0.0
-1.94422093522952 -9.57251836958332 0.0
-1.98323998834724 -10.1489359311375 0.0
-2.02035665660988 -10.7362308306905 0.0
-2.05557106729351 -11.3338614024695 0.0
-2.08888316264483 -11.941287482276 0.0
-2.12029247957946 -12.5579710964986 0.0
-2.14979778331085 -13.1833772761879 0.0
-2.17739649055067 -13.8169748639403 0.0
-2.20308380423125 -14.458237002684 0.0
-2.22685147388002 -15.1066406913412 0.0
-2.24868610293545 -15.7616643154299 0.0
-2.26856696606646 -16.4227813828724 0.0
-2.28646342102953 -17.0894478663961 0.0
-2.30233229816934 -17.7610798228428 0.0
-2.31611630092474 -18.4370179819727 0.0
-2.32774566255597 -19.116478116734 0.0
-2.33714709174174 -19.7984924746116 0.0
-2.34426564306869 -20.4818613882159 0.0
-2.34910455745934 -21.1651582444653 0.0
-2.35178726881811 -21.846864045139 0.0
-2.35267507619657 -22.5257157172861 0.0
-2.35268449385438 -23.2012224108632 0.0
0 0 0.0
-0.0655763125339138 -0.0252370782298297 0.0
-0.140794244497534 -0.0830021851725393 0.0
-0.219041867926367 -0.164742727896289 0.0
-0.29624734060804 -0.269560914436843 0.0
-0.371364403149061 -0.398188851893127 0.0
-0.444446947811683 -0.550875179238253 0.0
-0.515657077626282 -0.727384305138248 0.0
-0.585103629858612 -0.927272219127402 0.0
-0.652853415134683 -1.15001897580122 0.0
-0.718941842011449 -1.39507951274574 0.0
-0.78338643659616 -1.66190390103189 0.0
-0.846195114295412 -1.94994304483917 0.0
-0.90737111946075 -2.25864975281509 0.0
-0.966915603180905 -2.58747834454868 0.0
-1.02482887504793 -2.93588408432681 0.0
-1.08111095444011 -3.30332275023305 0.0
-1.13576178843499 -3.68925037243167 0.0
-1.18878132443584 -4.09312309209165 0.0
-1.24016952670084 -4.51439709192571 0.0
-1.28992637489506 -4.95252856413063 0.0
-1.33805185911153 -5.40697369596201 0.0
-1.38454597582335 -5.87718866288551 0.0
-1.42940872555159 -6.36262962507621 0.0
-1.47264011195316 -6.86275272650673 0.0
-1.51424014187309 -7.37701409830347 0.0
-1.55420882597594 -7.90486987038506 0.0
-1.59254617961715 -8.44577619824873 0.0
-1.62925222355247 -8.99918931553267 0.0
-1.66432698387923 -9.56456562782115 0.0
-1.69777049023664 -10.1413618688805 0.0
-1.72958277073272 -10.7290353462618 0.0
-1.75976384126233 -11.3270443069248 0.0
-1.78831368569863 -11.9348484511115 0.0
-1.81523222149427 -12.551909606641 0.0
-1.84051924145493 -13.1776925334696 0.0
-1.86417431419783 -13.8116657397307 0.0
-1.88619660720929 -14.4533020259542 0.0
-1.90658455610678 -15.102078193947 0.0
-1.92533522358402 -15.7574729150003 0.0
-1.94244305221457 -16.4189611128895 0.0
-1.95789752197674 -17.0860023979186 0.0
-1.97167907237051 -17.7580202569081 0.0
-1.98375284227701 -18.4343683724857 0.0
-1.99406092705344 -19.1142817889359 0.0
-2.0025167501468 -19.7968158823766 0.0
-2.00901018431864 -20.4807885756923 0.0
-2.01343878553447 -21.164764030481 0.0
-2.01579154413895 -21.8471431554801 0.0
-2.01633620081607 -22.5264173612574 0.0
-2.01599569806749 -23.2015013572817 0.0
0 0 0.0
-0.0537391877317303 -0.0169608704587445 0.0
-0.115223852957527 -0.0696557658204638 0.0
-0.179943954280408 -0.149701754367507 0.0
-0.244456644331058 -0.254444374871075 0.0
-0.307400057918156 -0.383451491396376 0.0
-0.368564072340488 -0.536574095953806 0.0
-0.428059452750517 -0.713493422100846 0.0
-0.486011918663804 -0.913757594446951 0.0
-0.542507790286404 -1.13685510012128 0.0
-0.597597538977405 -1.38225107363089 0.0
-0.651307380819187 -1.64940265279899 0.0
-0.703649766255918 -1.93776497689773 0.0
-0.75463005937654 -2.24679308370189 0.0
-0.804250312294754 -2.57594236689472 0.0
-0.85251117137029 -2.92466855954502 0.0
-0.899412757901081 -3.29242762242226 0.0
-0.944955035150289 -3.67867564524414 0.0
-0.989137942017443 -4.08286878205591 0.0
-1.03196143094617 -4.50446321412662 0.0
-1.0734254717647 -4.94291513003883 0.0
-1.1135300461835 -5.39768071501471 0.0
-1.15227514137374 -5.86821614478229 0.0
-1.18966074461789 -6.35397758189349 0.0
-1.22568683890896 -6.85442117440157 0.0
-1.26035339897118 -7.36900305858626 0.0
-1.29366038741475 -7.89717936941791 0.0
-1.32560775127725 -8.43840626505348 0.0
-1.35619542004281 -8.99213997513777 0.0
-1.38542330752459 -9.55783688716786 0.0
-1.41329132199203 -10.1349536904832 0.0
-1.43979939190818 -10.7229476027993 0.0
-1.46494751884863 -11.3212767077746 0.0
-1.48873587456439 -11.9294004302405 0.0
-1.51116496490505 -12.5467801619097 0.0
-1.53223588676726 -13.172880013715 0.0
-1.55195069883574 -13.8071675944725 0.0
-1.57031289878976 -14.4491145744995 0.0
-1.58732792285329 -15.0981965535591 0.0
-1.60300341566528 -15.7538913737633 0.0
-1.61734870478451 -16.4156744572002 0.0
-1.63037242106186 -17.0830089802842 0.0
-1.64207662256397 -17.7553277712226 0.0
-1.65244552884675 -18.432003006679 0.0
-1.66142809601982 -19.1122999287558 0.0
-1.66891791585953 -19.7953138941427 0.0
-1.67474316417177 -20.4798997373767 0.0
-1.67869416941134 -21.16462240684 0.0
-1.68063370850469 -21.8477830390015 0.0
-1.68074264927552 -22.5275706185619 0.0
-1.67991840510577 -23.2022760706396 0.0
0 0 0.0
-0.042489532439613 -0.0108030944806778 0.0
-0.090953683786989 -0.0593096624076047 0.0
-0.142339018099777 -0.137608809256542 0.0
-0.193967883464569 -0.2420554124958 0.0
-0.244515034464172 -0.371314285616487 0.0
-0.293627283331271 -0.52480878695378 0.0
-0.341340707364001 -0.702088409075516 0.0
-0.387766690811254 -0.902678762242471 0.0
-0.432994718139834 -1.12607433155075 0.0
-0.477080337268513 -1.37175055215983 0.0
-0.520053650466557 -1.639172596243 0.0
-0.561929360979733 -1.92780052758972 0.0
-0.602713999296936 -2.23709204976637 0.0
-0.64241016032181 -2.56650385818394 0.0
-0.681018719961264 -2.91549226506852 0.0
-0.718539884902269 -3.28351346181784 0.0
-0.754973644011676 -3.67002361649887 0.0
-0.790319939909987 -4.07447890231972 0.0
-0.824578722101314 -4.49633550079147 0.0
-0.8577499557472 -4.93504959735169 0.0
-0.889833616759915 -5.39007737579729 0.0
-0.920829684169115 -5.86087501338339 0.0
-0.950738132676683 -6.34689867716956 0.0
-0.979558925541754 -6.8476045223603 0.0
-1.00729200738653 -7.36244869431548 0.0
-1.03393729692688 -7.89088733743981 0.0
-1.05949468064955 -8.4323766163703 0.0
-1.08396401016275 -8.98637275790129 0.0
-1.1073451086596 -9.55233212597994 0.0
-1.12963779611629 -10.1297113467033 0.0
-1.1508419490218 -10.7179675048938 0.0
-1.17095761902127 -11.3165584369985 0.0
-1.18998524579504 -11.9249431437659 0.0
-1.20792601146761 -12.542582335189 0.0
-1.22478239269812 -13.1689390910981 0.0
-1.24055896253598 -13.8034795607448 0.0
-1.25526345692872 -14.4456735154514 0.0
-1.2689080130704 -15.0949943850514 0.0
-1.28151024696064 -15.7509181180646 0.0
-1.29309338034261 -16.4129197608179 0.0
-1.30368387572534 -17.0804659825618 0.0
-1.31330404325708 -17.7530007860254 0.0
-1.32195631914792 -18.4299202798336 0.0
-1.32959679084127 -19.1105309467279 0.0
-1.33610085457645 -19.7939857744963 0.0
-1.34123731483394 -20.479197709492 0.0
-1.34469013393244 -21.1647460445849 0.0
-1.34619015285374 -21.8488202469238 0.0
-1.34581037898174 -22.5292660527934 0.0
-1.34438606836089 -23.2037385928627 0.0
0 0 0.0
-0.0316079022635104 -0.0063414106172995 0.0
-0.0675611057476609 -0.0516076116083005 0.0
-0.105850888418412 -0.128365041250176 0.0
-0.144544742892339 -0.232430954488716 0.0
-0.182547527154707 -0.361830511504671 0.0
-0.219487604904187 -0.515614651292646 0.0
-0.255347823675834 -0.693189241203945 0.0
-0.290210308844898 -0.894045992918781 0.0
-0.324152959966369 -1.11768140562177 0.0
-0.357226979221624 -1.36357994874653 0.0
-0.389460941508414 -1.63121446714326 0.0
-0.420869112346109 -1.92004991355304 0.0
-0.451457949895859 -2.2295466801508 0.0
-0.481230083028984 -2.55916279583164 0.0
-0.510186434382261 -2.90835517374841 0.0
-0.538327245756905 -3.27658024898525 0.0
-0.565652527335696 -3.66329427485921 0.0
-0.592162232983439 -4.06795344722045 0.0
-0.617856317069639 -4.49001394962833 0.0
-0.642734745530459 -4.92893196557312 0.0
-0.666797491830412 -5.38416367862113 0.0
-0.690044529072697 -5.85516526910457 0.0
-0.712475821423087 -6.34139291071294 0.0
-0.734091315170519 -6.84230276859353 0.0
-0.754890929220135 -7.3573510005615 0.0
-0.774874545412476 -7.88599376399093 0.0
-0.794042000496053 -8.42768723265764 0.0
-0.812393084031395 -8.98188763020606 0.0
-0.829927550428319 -9.54805129001143 0.0
-0.846645159341203 -10.1256347548541 0.0
-0.862545767459419 -10.7140949335077 0.0
-0.877629506863904 -11.312889333923 0.0
-0.891897100472318 -11.9214763920062 0.0
-0.905350381947564 -12.5393159074181 0.0
-0.917993100619769 -13.1658695777801 0.0
-0.92983208954966 -13.8006015822605 0.0
-0.940878832773219 -14.4429790941385 0.0
-0.951151341795534 -15.092472485382 0.0
-0.960675967551258 -15.7485548024959 0.0
-0.969488223176982 -16.4106997975077 0.0
-0.977630750498723 -17.0783772852779 0.0
-0.985145196173444 -17.7510436258814 0.0
-0.992053367153072 -18.4281232517855 0.0
-0.998323179611144 -19.1089738997512 0.0
-1.00382036356428 -19.7928240208192 0.0
-1.0082635505508 -20.4786693347814 0.0
-1.01123168285235 -21.1651260720263 0.0
-1.0123055769271 -21.8502747108448 0.0
-1.01141007302007 -22.5315893791692 0.0
-1.00928189924141 -23.2060669408315 0.0
0 0 0.0
-0.0209584480727812 -0.00331138816245013 0.0
-0.0447484600667825 -0.0462842754489148 0.0
-0.0701512611993399 -0.121858083938027 0.0
-0.095921783438159 -0.225572308056964 0.0
-0.121293341266576 -0.355036515665053 0.0
-0.145969519169171 -0.509023501235308 0.0
-0.169914155354966 -0.686815796242897 0.0
-0.193178344480737 -0.887870061876208 0.0
-0.215818363427942 -1.11168157592642 0.0
-0.237873053436233 -1.35774157719323 0.0
-0.259364574898764 -1.62552917743304 0.0
-0.280304152181528 -1.91451343713186 0.0
-0.30069693325353 -2.22415704289257 0.0
-0.320545045086459 -2.55391917296277 0.0
-0.339849252014569 -2.90325726398787 0.0
-0.358609765968601 -3.27162796597592 0.0
-0.376826605985272 -3.65848760908127 0.0
-0.394499740609721 -4.06329241078417 0.0
-0.411629135119243 -4.48549855787595 0.0
-0.42821476113804 -4.92456223349252 0.0
-0.444256593186974 -5.37993962257566 0.0
-0.459754601262602 -5.85108691023177 0.0
-0.474708742038548 -6.33746027874654 0.0
-0.489118949004796 -6.83851590556224 0.0
-0.502985121551244 -7.35370996363316 0.0
-0.516307113786066 -7.88249862595159 0.0
-0.529084725629594 -8.42433807714239 0.0
-0.541317701733634 -8.9786845366821 0.0
-0.553005748606518 -9.54499430044278 0.0
-0.564148587715467 -10.1227238097651 0.0
-0.574746073089921 -10.7113297598001 0.0
-0.584798416668386 -11.3102692607161 0.0
-0.594306583196543 -11.9190000653072 0.0
-0.603272937005344 -12.5369808726834 0.0
-0.611702239895592 -13.1636717075934 0.0
-0.619603100042287 -13.7985343558359 0.0
-0.626989931259136 -14.4410328057541 0.0
-0.633885354250914 -15.0906336015271 0.0
-0.640322678347813 -15.7468059481901 0.0
-0.646347520504405 -16.4090212871872 0.0
-0.652016578383421 -17.0767517632295 0.0
-0.657389918786774 -17.7494661730827 0.0
-0.662511018432864 -18.4266197896253 0.0
-0.667367559612113 -19.107629452788 0.0
-0.671829990012558 -19.7918163338894 0.0
-0.675582753461076 -20.4782883076815 0.0
-0.678103328164588 -21.1657349826111 0.0
-0.678795494670356 -21.8521511356143 0.0
-0.677378890558735 -22.534620692872 0.0
-0.674452248234597 -23.2094289972108 0.0
0 0 0.0
-0.0104469388211557 -0.00155148289605769 0.0
-0.02229008490511 -0.0431594281827538 0.0
-0.034953649860624 -0.11799421849847 0.0
-0.0478290992207189 -0.221466187153263 0.0
-0.060524222722866 -0.350953375593227 0.0
-0.0728768216326348 -0.505059203500967 0.0
-0.0848608259054299 -0.682984550045616 0.0
-0.0965000893404302 -0.88416029282724 0.0
-0.107823843782894 -1.1080795241301 0.0
-0.118852935314234 -1.35423756052464 0.0
-0.129599428934561 -1.62211759084482 0.0
-0.140069487182027 -1.9111914014315 0.0
-0.150265957713131 -2.22092321729702 0.0
-0.160190027279914 -2.55077299295612 0.0
-0.169842128062795 -2.90019852094709 0.0
-0.179222383700833 -3.26865659868154 0.0
-0.18833080841177 -3.65560360986502 0.0
-0.197167386325325 -4.0604957878728 0.0
-0.205732097702409 -4.48278932293827 0.0
-0.214024923670292 -4.92194039954522 0.0
-0.222045842932995 -5.37740520581405 0.0
-0.229794825363051 -5.84863993329936 0.0
-0.237271823773247 -6.33510077454362 0.0
-0.244476763977569 -6.83624392106335 0.0
-0.251409533313438 -7.35152556285111 0.0
-0.258069968746258 -7.8804018902909 0.0
-0.264457847614927 -8.42232909985609 0.0
-0.270572887410853 -8.97676340579287 0.0
-0.276414766349332 -9.54316106107073 0.0
-0.281983184695681 -10.1209783921214 0.0
-0.287277998709058 -10.7096718531432 0.0
-0.292299475322825 -11.3086981067768 0.0
-0.297048736219738 -11.917514138475 0.0
-0.301528482981861 -12.5355774117587 0.0
-0.305744115193925 -13.1623460713969 0.0
-0.309705358953664 -13.7972792037186 0.0
-0.313428491004206 -14.4398371733747 0.0
-0.316939131283834 -15.089482083363 0.0
-0.320275310204426 -15.7456784588255 0.0
-0.323489972235109 -16.4078943206687 0.0