# vtk DataFile Version 4.1
CantileverFEMDiscontinuous
ASCII

DATASET UNSTRUCTURED_GRID
POINTS 4000 double
0 0 0.0
2 0 0.0
2 1 0.0
0 1 0.0
2 0 0.0
4 0 0.0
4 1 0.0
2 1 0.0
4 0 0.0
6 0 0.0
6 1 0.0
4 1 0.0
6 0 0.0
8 0 0.0
8 1 0.0
6 1 0.0
8 0 0.0
10 0 0.0
10 1 0.0
8 1 0.0
10 0 0.0
12 0 0.0
12 1 0.0
10 1 0.0
12 0 0.0
14 0 0.0
14 1 0.0
12 1 0.0
14 0 0.0
16 0 0.0
16 1 0.0
14 1 0.0
16 0 0.0
18 0 0.0
18 1 0.0
16 1 0.0
18 0 0.0
20 0 0.0
20 1 0.0
18 1 0.0
20 0 0.0
22 0 0.0
22 1 0.0
20 1 0.0
22 0 0.0
24 0 0.0
24 1 0.0
22 1 0.0
24 0 0.0
26 0 0.0
26 1 0.0
24 1 0.0
26 0 0.0
28 0 0.0
28 1 0.0
26 1 0.0
28 0 0.0
30 0 0.0
30 1 0.0
28 1 0.0
30 0 0.0
32 0 0.0
32 1 0.0
30 1 0.0
32 0 0.0
34 0 0.0
34 1 0.0
32 1 0.0
34 0 0.0
36 0 0.0
36 1 0.0
34 1 0.0
36 0 0.0
38 0 0.0
38 1 0.0
36 1 0.0
38 0 0.0
40 0 0.0
40 1 0.0
38 1 0.0
40 0 0.0
42 0 0.0
42 1 0.0
40 1 0.0
42 0 0.0
44 0 0.0
44 1 0.0
42 1 0.0
44 0 0.0
46 0 0.0
46 1 0.0
44 1 0.0
46 0 0.0
48 0 0.0
48 1 0.0
46 1 0.0
48 0 0.0
50 0 0.0
50 1 0.0
48 1 0.0
50 0 0.0
52 0 0.0
52 1 0.0
50 1 0.0
52 0 0.0
54 0 0.0
54 1 0.0
52 1 0.0
54 0 0.0
56 0 0.0
56 1 0.0
54 1 0.0
56 0 0.0
58 0 0.0
58 1 0.0
56 1 0.0
58 0 0.0
60 0 0.0
60 1 0.0
58 1 0.0
60 0 0.0
62 0 0.0
62 1 0.0
60 1 0.0
62 0 0.0
64 0 0.0
64 1 0.0
62 1 0.0
64 0 0.0
66 0 0.0
66 1 0.0
64 1 0.0
66 0 0.0
68 0 0.0
68 1 0.0
66 1 0.0
68 0 0.0
70 0 0.0
70 1 0.0
68 1 0.0
70 0 0.0
72 0 0.0
72 1 0.0
70 1 0.0
72 0 0.0
74 0 0.0
74 1 0.0
72 1 0.0
74 0 0.0
76 0 0.0
76 1 0.0
74 1 0.0
76 0 0.0
78 0 0.0
78 1 0.0
76 1 0.0
78 0 0.0
80 0 0.0
80 1 0.0
78 1 0.0
80 0 0.0
82 0 0.0
82 1 0.0
80 1 0.0
82 0 0.0
84 0 0.0
84 1 0.0
82 1 0.0
84 0 0.0
86 0 0.0
86 1 0.0
84 1 0.0
86 0 0.0
88 0 0.0
88 1 0.0
86 1 0.0
88 0 0.0
90 0 0.0
90 1 0.0
88 1 0.0
90 0 0.0
92 0 0.0
92 1 0.0
90 1 0.0
92 0 0.0
94 0 0.0
94 1 0.0
92 1 0.0
94 0 0.0
96 0 0.0
96 1 0.0
94 1 0.0
96 0 0.0
98 0 0.0
98 1 0.0
96 1 0.0
98 0 0.0
100 0 0.0
100 1 0.0
98 1 0.0
0 1 0.0
2 1 0.0
2 2 0.0
0 2 0.0
2 1 0.0
4 1 0.0
4 2 0.0
2 2 0.0
4 1 0.0
6 1 0.0
6 2 0.0
4 2 0.0
6 1 0.0
8 1 0.0
8 2 0.0
6 2 0.0
8 1 0.0
10 1 0.0
10 2 0.0
8 2 0.0
10 1 0.0
12 1 0.0
12 2 0.0
10 2 0.0
12 1 0.0
14 1 0.0
14 2 0.0
12 2 0.0
14 1 0.0
16 1 0.0
16 2 0.0
14 2 0.0
16 1 0.0
18 1 0.0
18 2 0.0
16 2 0.0
18 1 0.0
20 1 0.0
20 2 0.0
18 2 0.0
20 1 0.0
22 1 0.0
22 2 0.0
20 2 0.0
22 1 0.0
24 1 0.0
24 2 0.0
22 2 0.0
24 1 0.0
26 1 0.0
26 2 0.0
24 2 0.0
26 1 0.0
28 1 0.0
28 2 0.0
26 2 0.0
28 1 0.0
30 1 0.0
30 2 0.0
28 2 0.0
30 1 0.0
32 1 0.0
32 2 0.0
30 2 0.0
32 1 0.0
34 1 0.0
34 2 0.0
32 2 0.0
34 1 0.0
36 1 0.0
36 2 0.0
34 2 0.0
36 1 0.0
38 1 0.0
38 2 0.0
36 2 0.0
38 1 0.0
40 1 0.0
40 2 0.0
38 2 0.0
40 1 0.0
42 1 0.0
42 2 0.0
40 2 0.0
42 1 0.0
44 1 0.0
44 2 0.0
42 2 0.0
44 1 0.0
46 1 0.0
46 2 0.0
44 2 0.0
46 1 0.0
48 1 0.0
48 2 0.0
46 2 0.0
48 1 0.0
50 1 0.0
50 2 0.0
48 2 0.0
50 1 0.0
52 1 0.0
52 2 0.0
50 2 0.0
52 1 0.0
54 1 0.0
54 2 0.0
52 2 0.0
54 1 0.0
56 1 0.0
56 2 0.0
54 2 0.0
56 1 0.0
58 1 0.0
58 2 0.0
56 2 0.0
58 1 0.0
60 1 0.0
60 2 0.0
58 2 0.0
60 1 0.0
62 1 0.0
62 2 0.0
60 2 0.0
62 1 0.0
64 1 0.0
64 2 0.0
62 2 0.0
64 1 0.0
66 1 0.0
66 2 0.0
64 2 0.0
66 1 0.0
68 1 0.0
68 2 0.0
66 2 0.0
68 1 0.0
70 1 0.0
70 2 0.0
68 2 0.0
70 1 0.0
72 1 0.0
72 2 0.0
70 2 0.0
72 1 0.0
74 1 0.0
74 2 0.0
72 2 0.0
74 1 0.0
76 1 0.0
76 2 0.0
74 2 0.0
76 1 0.0
78 1 0.0
78 2 0.0
76 2 0.0
78 1 0.0
80 1 0.0
80 2 0.0
78 2 0.0
80 1 0.0
82 1 0.0
82 2 0.0
80 2 0.0
82 1 0.0
84 1 0.0
84 2 0.0
82 2 0.0
84 1 0.0
86 1 0.0
86 2 0.0
84 2 0.0
86 1 0.0
88 1 0.0
88 2 0.0
86 2 0.0
88 1 0.0
90 1 0.0
90 2 0.0
88 2 0.0
90 1 0.0
92 1 0.0
92 2 0.0
90 2 0.0
92 1 0.0
94 1 0.0
94 2 0.0
92 2 0.0
94 1 0.0
96 1 0.0
96 2 0.0
94 2 0.0
96 1 0.0
98 1 0.0
98 2 0.0
96 2 0.0
98 1 0.0
100 1 0.0
100 2 0.0
98 2 0.0
0 2 0.0
2 2 0.0
2 3 0.0
0 3 0.0
2 2 0.0
4 2 0.0
4 3 0.0
2 3 0.0
4 2 0.0
6 2 0.0
6 3 0.0
4 3 0.0
6 2 0.0
8 2 0.0
8 3 0.0
6 3 0.0
8 2 0.0
10 2 0.0
10 3 0.0
8 3 0.0
10 2 0.0
12 2 0.0
12 3 0.0
10 3 0.0
12 2 0.0
14 2 0.0
14 3 0.0
12 3 0.0
14 2 0.0
16 2 0.0
16 3 0.0
14 3 0.0
16 2 0.0
18 2 0.0
18 3 0.0
16 3 0.0
18 2 0.0
20 2 0.0
20 3 0.0
18 3 0.0
20 2 0.0
22 2 0.0
22 3 0.0
20 3 0.0
22 2 0.0
24 2 0.0
24 3 0.0
22 3 0.0
24 2 0.0
26 2 0.0
26 3 0.0
24 3 0.0
26 2 0.0
28 2 0.0
28 3 0.0
26 3 0.0
28 2 0.0
30 2 0.0
30 3 0.0
28 3 0.0
30 2 0.0
32 2 0.0
32 3 0.0
30 3 0.0
32 2 0.0
34 2 0.0
34 3 0.0
32 3 0.0
34 2 0.0
36 2 0.0
36 3 0.0
34 3 0.0
36 2 0.0
38 2 0.0
38 3 0.0
36 3 0.0
38 2 0.0
40 2 0.0
40 3 0.0
38 3 0.0
40 2 0.0
42 2 0.0
42 3 0.0
40 3 0.0
42 2 0.0
44 2 0.0
44 3 0.0
42 3 0.0
44 2 0.0
46 2 0.0
46 3 0.0
44 3 0.0
46 2 0.0
48 2 0.0
48 3 0.0
46 3 0.0
48 2 0.0
50 2 0.0
50 3 0.0
48 3 0.0
50 2 0.0
52 2 0.0
52 3 0.0
50 3 0.0
52 2 0.0
54 2 0.0
54 3 0.0
52 3 0.0
54 2 0.0
56 2 0.0
56 3 0.0
54 3 0.0
56 2 0.0
58 2 0.0
58 3 0.0
56 3 0.0
58 2 0.0
60 2 0.0
60 3 0.0
58 3 0.0
60 2 0.0
62 2 0.0
62 3 0.0
60 3 0.0
62 2 0.0
64 2 0.0
64 3 0.0
62 3 0.0
64 2 0.0
66 2 0.0
66 3 0.0
64 3 0.0
66 2 0.0
68 2 0.0
68 3 0.0
66 3 0.0
68 2 0.0
70 2 0.0
70 3 0.0
68 3 0.0
70 2 0.0
72 2 0.0
72 3 0.0
70 3 0.0
72 2 0.0
74 2 0.0
74 3 0.0
72 3 0.0
74 2 0.0
76 2 0.0
76 3 0.0
74 3 0.0
76 2 0.0
78 2 0.0
78 3 0.0
76 3 0.0
78 2 0.0
80 2 0.0
80 3 0.0
78 3 0.0
80 2 0.0
82 2 0.0
82 3 0.0
80 3 0.0
82 2 0.0
84 2 0.0
84 3 0.0
82 3 0.0
84 2 0.0
86 2 0.0
86 3 0.0
84 3 0.0
86 2 0.0
88 2 0.0
88 3 0.0
86 3 0.0
88 2 0.0
90 2 0.0
90 3 0.0
88 3 0.0
90 2 0.0
92 2 0.0
92 3 0.0
90 3 0.0
92 2 0.0
94 2 0.0
94 3 0.0
92 3 0.0
94 2 0.0
96 2 0.0
96 3 0.0
94 3 0.0
96 2 0.0
98 2 0.0
98 3 0.0
96 3 0.0
98 2 0.0
100 2 0.0
100 3 0.0
98 3 0.0
0 3 0.0
2 3 0.0
2 4 0.0
0 4 0.0
2 3 0.0
4 3 0.0
4 4 0.0
2 4 0.0
4 3 0.0
6 3 0.0
6 4 0.0
4 4 0.0
6 3 0.0
8 3 0.0
8 4 0.0
6 4 0.0
8 3 0.0
10 3 0.0
10 4 0.0
8 4 0.0
10 3 0.0
12 3 0.0
12 4 0.0
10 4 0.0
12 3 0.0
14 3 0.0
14 4 0.0
12 4 0.0
14 3 0.0
16 3 0.0
16 4 0.0
14 4 0.0
16 3 0.0
18 3 0.0
18 4 0.0
16 4 0.0
18 3 0.0
20 3 0.0
20 4 0.0
18 4 0.0
20 3 0.0
22 3 0.0
22 4 0.0
20 4 0.0
22 3 0.0
24 3 0.0
24 4 0.0
22 4 0.0
24 3 0.0
26 3 0.0
26 4 0.0
24 4 0.0
26 3 0.0
28 3 0.0
28 4 0.0
26 4 0.0
28 3 0.0
30 3 0.0
30 4 0.0
28 4 0.0
30 3 0.0
32 3 0.0
32 4 0.0
30 4 0.0
32 3 0.0
34 3 0.0
34 4 0.0
32 4 0.0
34 3 0.0
36 3 0.0
36 4 0.0
34 4 0.0
36 3 0.0
38 3 0.0
38 4 0.0
36 4 0.0
38 3 0.0
40 3 0.0
40 4 0.0
38 4 0.0
40 3 0.0
42 3 0.0
42 4 0.0
40 4 0.0
42 3 0.0
44 3 0.0
44 4 0.0
42 4 0.0
44 3 0.0
46 3 0.0
46 4 0.0
44 4 0.0
46 3 0.0
48 3 0.0
48 4 0.0
46 4 0.0
48 3 0.0
50 3 0.0
50 4 0.0
48 4 0.0
50 3 0.0
52 3 0.0
52 4 0.0
50 4 0.0
52 3 0.0
54 3 0.0
54 4 0.0
52 4 0.0
54 3 0.0
56 3 0.0
56 4 0.0
54 4 0.0
56 3 0.0
58 3 0.0
58 4 0.0
56 4 0.0
58 3 0.0
60 3 0.0
60 4 0.0
58 4 0.0
60 3 0.0
62 3 0.0
62 4 0.0
60 4 0.0
62 3 0.0
64 3 0.0
64 4 0.0
62 4 0.0
64 3 0.0
66 3 0.0
66 4 0.0
64 4 0.0
66 3 0.0
68 3 0.0
68 4 0.0
66 4 0.0
68 3 0.0
70 3 0.0
70 4 0.0
68 4 0.0
70 3 0.0
72 3 0.0
72 4 0.0
70 4 0.0
72 3 0.0
74 3 0.0
74 4 0.0
72 4 0.0
74 3 0.0
76 3 0.0
76 4 0.0
74 4 0.0
76 3 0.0
78 3 0.0
78 4 0.0
76 4 0.0
78 3 0.0
80 3 0.0
80 4 0.0
78 4 0.0
80 3 0.0
82 3 0.0
82 4 0.0
80 4 0.0
82 3 0.0
84 3 0.0
84 4 0.0
82 4 0.0
84 3 0.0
86 3 0.0
86 4 0.0
84 4 0.0
86 3 0.0
88 3 0.0
88 4 0.0
86 4 0.0
88 3 0.0
90 3 0.0
90 4 0.0
88 4 0.0
90 3 0.0
92 3 0.0
92 4 0.0
90 4 0.0
92 3 0.0
94 3 0.0
94 4 0.0
92 4 0.0
94 3 0.0
96 3 0.0
96 4 0.0
94 4 0.0
96 3 0.0
98 3 0.0
98 4 0.0
96 4 0.0
98 3 0.0
100 3 0.0
100 4 0.0
98 4 0.0
0 4 0.0
2 4 0.0
2 5 0.0
0 5 0.0
2 4 0.0
4 4 0.0
4 5 0.0
2 5 0.0
4 4 0.0
6 4 0.0
6 5 0.0
4 5 0.0
6 4 0.0
8 4 0.0
8 5 0.0
6 5 0.0
8 4 0.0
10 4 0.0
10 5 0.0
8 5 0.0
10 4 0.0
12 4 0.0
12 5 0.0
10 5 0.0
12 4 0.0
14 4 0.0
14 5 0.0
12 5 0.0
14 4 0.0
16 4 0.0
16 5 0.0
14 5 0.0
16 4 0.0
18 4 0.0
18 5 0.0
16 5 0.0
18 4 0.0
20 4 0.0
20 5 0.0
18 5 0.0
20 4 0.0
22 4 0.0
22 5 0.0
20 5 0.0
22 4 0.0
24 4 0.0
24 5 0.0
22 5 0.0
24 4 0.0
26 4 0.0
26 5 0.0
24 5 0.0
26 4 0.0
28 4 0.0
28 5 0.0
26 5 0.0
28 4 0.0
30 4 0.0
30 5 0.0
28 5 0.0
30 4 0.0
32 4 0.0
32 5 0.0
30 5 0.0
32 4 0.0
34 4 0.0
34 5 0.0
32 5 0.0
34 4 0.0
36 4 0.0
36 5 0.0
34 5 0.0
36 4 0.0
38 4 0.0
38 5 0.0
36 5 0.0
38 4 0.0
40 4 0.0
40 5 0.0
38 5 0.0
40 4 0.0
42 4 0.0
42 5 0.0
40 5 0.0
42 4 0.0
44 4 0.0
44 5 0.0
42 5 0.0
44 4 0.0
46 4 0.0
46 5 0.0
44 5 0.0
46 4 0.0
48 4 0.0
48 5 0.0
46 5 0.0
48 4 0.0
50 4 0.0
50 5 0.0
48 5 0.0
50 4 0.0
52 4 0.0
52 5 0.0
50 5 0.0
52 4 0.0
54 4 0.0
54 5 0.0
52 5 0.0
54 4 0.0
56 4 0.0
56 5 0.0
54 5 0.0
56 4 0.0
58 4 0.0
58 5 0.0
56 5 0.0
58 4 0.0
60 4 0.0
60 5 0.0
58 5 0.0
60 4 0.0
62 4 0.0
62 5 0.0
60 5 0.0
62 4 0.0
64 4 0.0
64 5 0.0
62 5 0.0
64 4 0.0
66 4 0.0
66 5 0.0
64 5 0.0
66 4 0.0
68 4 0.0
68 5 0.0
66 5 0.0
68 4 0.0
70 4 0.0
70 5 0.0
68 5 0.0
70 4 0.0
72 4 0.0
72 5 0.0
70 5 0.0
72 4 0.0
74 4 0.0
74 5 0.0
72 5 0.0
74 4 0.0
76 4 0.0
76 5 0.0
74 5 0.0
76 4 0.0
78 4 0.0
78 5 0.0
76 5 0.0
78 4 0.0
80 4 0.0
80 5 0.0
78 5 0.0
80 4 0.0
82 4 0.0
82 5 0.0
80 5 0.0
82 4 0.0
84 4 0.0
84 5 0.0
82 5 0.0
84 4 0.0
86 4 0.0
86 5 0.0
84 5 0.0
86 4 0.0
88 4 0.0
88 5 0.0
86 5 0.0
88 4 0.0
90 4 0.0
90 5 0.0
88 5 0.0
90 4 0.0
92 4 0.0
92 5 0.0
90 5 0.0
92 4 0.0
94 4 0.0
94 5 0.0
92 5 0.0
94 4 0.0
96 4 0.0
96 5 0.0
94 5 0.0
96 4 0.0
98 4 0.0
98 5 0.0
96 5 0.0
98 4 0.0
100 4 0.0
100 5 0.0
98 5 0.0
0 5 0.0
2 5 0.0
2 6 0.0
0 6 0.0
2 5 0.0
4 5 0.0
4 6 0.0
2 6 0.0
4 5 0.0
6 5 0.0
6 6 0.0
4 6 0.0
6 5 0.0
8 5 0.0
8 6 0.0
6 6 0.0
8 5 0.0
10 5 0.0
10 6 0.0
8 6 0.0
10 5 0.0
12 5 0.0
12 6 0.0
10 6 0.0
12 5 0.0
14 5 0.0
14 6 0.0
12 6 0.0
14 5 0.0
16 5 0.0
16 6 0.0
14 6 0.0
16 5 0.0
18 5 0.0
18 6 0.0
16 6 0.0
18 5 0.0
20 5 0.0
20 6 0.0
18 6 0.0
20 5 0.0
22 5 0.0
22 6 0.0
20 6 0.0
22 5 0.0
24 5 0.0
24 6 0.0
22 6 0.0
24 5 0.0
26 5 0.0
26 6 0.0
24 6 0.0
26 5 0.0
28 5 0.0
28 6 0.0
26 6 0.0
28 5 0.0
30 5 0.0
30 6 0.0
28 6 0.0
30 5 0.0
32 5 0.0
32 6 0.0
30 6 0.0
32 5 0.0
34 5 0.0
34 6 0.0
32 6 0.0
34 5 0.0
36 5 0.0
36 6 0.0
34 6 0.0
36 5 0.0
38 5 0.0
38 6 0.0
36 6 0.0
38 5 0.0
40 5 0.0
40 6 0.0
38 6 0.0
40 5 0.0
42 5 0.0
42 6 0.0
40 6 0.0
42 5 0.0
44 5 0.0
44 6 0.0
42 6 0.0
44 5 0.0
46 5 0.0
46 6 0.0
44 6 0.0
46 5 0.0
48 5 0.0
48 6 0.0
46 6 0.0
48 5 0.0
50 5 0.0
50 6 0.0
48 6 0.0
50 5 0.0
52 5 0.0
52 6 0.0
50 6 0.0
52 5 0.0
54 5 0.0
54 6 0.0
52 6 0.0
54 5 0.0
56 5 0.0
[...]
POINT_DATA 4000
VECTORS displacements double
0 0 0.0
-0.14671800959312 -0.103548280625709 0.0
-0.111834636385334 -0.0725582756510965 0.0
0 0 0.0
-0.14671800959312 -0.103548280625709 0.0
-0.270198626757185 -0.169503507643494 0.0
-0.233850903875872 -0.144640821660031 0.0
-0.111834636385334 -0.0725582756510965 0.0
-0.270198626757185 -0.169503507643494 0.0
-0.393705932206903 -0.25212112546026 0.0
-0.347878412287049 -0.226563641603307 0.0
-0.233850903875872 -0.144640821660031 0.0
-0.393705932206903 -0.25212112546026 0.0
-0.517150858148128 -0.355354603868815 0.0
-0.460117377464919 -0.330272599685333 0.0
-0.347878412287049 -0.226563641603307 0.0
-0.517150858148128 -0.355354603868815 0.0
-0.639300074347053 -0.48220747110031 0.0
-0.570493182549152 -0.457469492908143 0.0
-0.460117377464919 -0.330272599685333 0.0
-0.639300074347053 -0.48220747110031 0.0
-0.759560035121565 -0.633004186377786 0.0
-0.678874692529139 -0.608734567214421 0.0
-0.570493182549152 -0.457469492908143 0.0
-0.759560035121565 -0.633004186377786 0.0
-0.877511975184077 -0.807616720237978 0.0
-0.785072569865547 -0.783851279959817 0.0
-0.678874692529139 -0.608734567214421 0.0
-0.877511975184077 -0.807616720237978 0.0
-0.992940746858697 -1.00561348502203 0.0
-0.888962240853648 -0.982379997666032 0.0
-0.785072569865547 -0.783851279959817 0.0
-0.992940746858697 -1.00561348502203 0.0
-1.1057347588163 -1.226478780395 0.0
-0.990471302658851 -1.20378942427708 0.0
-0.888962240853648 -0.982379997666032 0.0
-1.1057347588163 -1.226478780395 0.0
-1.21584252149378 -1.46966521853799 0.0
-1.08956233184275 -1.44752593640643 0.0
-0.990471302658851 -1.20378942427708 0.0
-1.21584252149378 -1.46966521853799 0.0
-1.32324189725693 -1.73462023473274 0.0
-1.18621761884204 -1.71303341897825 0.0
-1.08956233184275 -1.44752593640643 0.0
-1.32324189725693 -1.73462023473274 0.0
-1.4279245138593 -2.02079264154975 0.0
-1.28042954496843 -1.99975917647363 0.0
-1.18621761884204 -1.71303341897825 0.0
-1.4279245138593 -2.02079264154975 0.0
-1.52988776106556 -2.32763394640474 0.0
-1.37219520150175 -2.30715407911495 0.0
-1.28042954496843 -1.99975917647363 0.0
-1.52988776106556 -2.32763394640474 0.0
-1.62913117490902 -2.65459774846552 0.0
-1.46151367423644 -2.63467150560475 0.0
-1.37219520150175 -2.30715407911495 0.0
-1.62913117490902 -2.65459774846552 0.0
-1.72565492597583 -3.00113895288623 0.0
-1.54838479276526 -2.98176630188004 0.0
-1.46151367423644 -2.63467150560475 0.0
-1.72565492597583 -3.00113895288623 0.0
-1.8194592745756 -3.36671317448577 0.0
-1.63280860935776 -3.34789408000575 0.0
-1.54838479276526 -2.98176630188004 0.0
-1.8194592745756 -3.36671317448577 0.0
-1.91054441735074 -3.75077637656547 0.0
-1.71478520948853 -3.73251081410458 0.0
-1.63280860935776 -3.34789408000575 0.0
-1.91054441735074 -3.75077637656547 0.0
-1.99891047245065 -4.15278467650098 0.0
-1.79431465819363 -4.13507263206362 0.0
-1.71478520948853 -3.73251081410458 0.0
-1.99891047245065 -4.15278467650098 0.0
-2.08455750125904 -4.57219425059775 0.0
-1.87139699478897 -4.55503571715984 0.0
-1.79431465819363 -4.13507263206362 0.0
-2.08455750125904 -4.57219425059775 0.0
-2.16748553233299 -5.0084612909717 0.0
-1.94603224100283 -4.99185626513726 0.0
-1.87139699478897 -4.55503571715984 0.0
-2.16748553233299 -5.0084612909717 0.0
-2.24769457964022 -5.46104198721646 0.0
-2.01822041084584 -5.44499046661763 0.0
-1.94603224100283 -4.99185626513726 0.0
-2.24769457964022 -5.46104198721646 0.0
-2.32518465611526 -5.92939251899423 0.0
-2.08796151980895 -5.91389450009656 0.0
-2.01822041084584 -5.44499046661763 0.0
-2.32518465611526 -5.92939251899423 0.0
-2.39995578573054 -6.41296905363385 0.0
-2.15525559418289 -6.39802452941439 0.0
-2.08796151980895 -5.91389450009656 0.0
-2.39995578573054 -6.41296905363385 0.0
-2.47200801733641 -6.91122774736974 0.0
-2.22010268212832 -6.8968367043564 0.0
-2.15525559418289 -6.39802452941439 0.0
-2.47200801733641 -6.91122774736974 0.0
-2.54134144311195 -7.42362475177523 0.0
-2.28250286810467 -7.40978716600976 0.0
-2.22010268212832 -6.8968367043564 0.0
-2.54134144311195 -7.42362475177523 0.0
-2.60795622394257 -7.94961622940288 0.0
-2.34245629182855 -7.93633206101676 0.0
-2.28250286810467 -7.40978716600976 0.0
-2.60795622394257 -7.94961622940288 0.0
-2.67185262317175 -8.4886583853553 0.0
-2.39996317198276 -8.47592757170088 0.0
-2.34245629182855 -7.93633206101676 0.0
-2.67185262317175 -8.4886583853553 0.0
-2.73303104838284 -9.04020752484143 0.0
-2.45502383301294 -9.02802997264051 0.0
-2.39996317198276 -8.47592757170088 0.0
-2.73303104838284 -9.04020752484143 0.0
-2.79149209723362 -9.60372015077288 0.0
-2.50763872981705 -9.59209572873825 0.0
-2.45502383301294 -9.02802997264051 0.0
-2.79149209723362 -9.60372015077288 0.0
-2.84723659653463 -10.1786531197169 0.0
-2.55780845891693 -10.1675816548727 0.0
-2.50763872981705 -9.59209572873825 0.0
-2.84723659653463 -10.1786531197169 0.0
-2.90026561180582 -10.7644638778942 0.0
-2.60553373439127 -10.7539451617766 0.0
-2.55780845891693 -10.1675816548727 0.0
-2.90026561180582 -10.7644638778942 0.0
-2.9505803848809 -11.3606107989257 0.0
-2.65081529067801 -11.3506446145071 0.0
-2.60553373439127 -10.7539451617766 0.0
-2.9505803848809 -11.3606107989257 0.0
-2.9981821265765 -11.9665536370654 0.0
-2.69365365037949 -11.9571398241971 0.0
-2.65081529067801 -11.3506446145071 0.0
-2.9981821265765 -11.9665536370654 0.0
-3.04307154669974 -12.5817540856425 0.0
-2.73404866186838 -12.5728926725224 0.0
-2.69365365037949 -11.9571398241971 0.0
-3.04307154669974 -12.5817540856425 0.0
-3.08524794263001 -13.2056763771581 0.0
-2.77199866891034 -13.1973678178001 0.0
-2.73404866186838 -12.5728926725224 0.0
-3.08524794263001 -13.2056763771581 0.0
-3.12470759251233 -13.8377877587138 0.0
-2.8074991270875 -13.8300333303236 0.0
-2.77199866891034 -13.1973678178001 0.0
-3.12470759251233 -13.8377877587138 0.0
-3.16144112227122 -14.477558495701 0.0
-2.84054044302729 -14.4703609211549 0.0
-2.8074991270875 -13.8300333303236 0.0
-3.16144112227122 -14.477558495701 0.0
-3.19542947142631 -15.1244607631749 0.0
-2.87110481303762 -15.1178251229674 0.0
-2.84054044302729 -14.4703609211549 0.0
-3.19542947142631 -15.1244607631749 0.0
-3.2266381453987 -15.7779653475282 0.0
-2.89916193767745 -15.7719003138077 0.0
-2.87110481303762 -15.1178251229674 0.0
-3.2266381453987 -15.7779653475282 0.0
-3.25500975089831 -16.4375345042282 0.0
-2.92466379132153 -16.4320538342709 0.0
-2.89916193767745 -15.7719003138077 0.0
-3.25500975089831 -16.4375345042282 0.0
-3.28045559188538 -17.1026087021452 0.0
-2.94753928497761 -17.0977327211698 0.0
-2.92466379132153 -16.4320538342709 0.0
-3.28045559188538 -17.1026087021452 0.0
-3.30284865772238 -17.7725846467018 0.0
-2.96769085948668 -17.7683410740775 0.0
-2.94753928497761 -17.0977327211698 0.0
-3.30284865772238 -17.7725846467018 0.0
-3.32202293618492 -18.4467826072097 0.0
-2.98499690196263 -18.4432055035199 0.0
-2.96769085948668 -17.7683410740775 0.0
-3.32202293618492 -18.4467826072097 0.0
-3.33778759635594 -19.124403905937 0.0
-2.99932621422058 -19.1215288129704 0.0
-2.98499690196263 -18.4432055035199 0.0
-3.33778759635594 -19.124403905937 0.0
-3.34996836229609 -19.8044862447054 0.0
-3.01057270917254 -19.8023390288505 0.0
-2.99932621422058 -19.1215288129704 0.0
-3.34996836229609 -19.8044862447054 0.0
-3.35848999485214 -20.4858772572702 0.0
-3.01871794178962 -20.4844544889209 0.0
-3.01057270917254 -19.8023390288505 0.0
-3.35848999485214 -20.4858772572702 0.0
-3.36350905011599 -21.1672671625643 0.0
-3.02392227162232 -21.1665077159236 0.0
-3.01871794178962 -20.4844544889209 0.0
-3.36350905011599 -21.1672671625643 0.0
-3.36558857719623 -21.8473498960182 0.0
-3.02662380255315 -21.8471053180256 0.0
-3.02392227162232 -21.1665077159236 0.0
-3.36558857719623 -21.8473498960182 0.0
-3.3658564827449 -22.5252514241783 0.0
-3.0275756880032 -22.5252661411977 0.0
-3.02662380255315 -21.8471053180256 0.0
-3.3658564827449 -22.5252514241783 0.0
-3.36572891913042 -23.2013681882695 0.0
-3.0277573517572 -23.2013359290106 0.0
-3.0275756880032 -22.5252661411977 0.0
0 0 0.0
-0.111834636385334 -0.0725582756510965 0.0
-0.0930743673614782 -0.0513745996702332 0.0
0 0 0.0
-0.111834636385334 -0.0725582756510965 0.0
-0.233850903875872 -0.144640821660031 0.0
-0.198770879976475 -0.120379516546289 0.0
-0.0930743673614782 -0.0513745996702332 0.0
-0.233850903875872 -0.144640821660031 0.0
-0.347878412287049 -0.226563641603307 0.0
-0.303185252592917 -0.203537266739044 0.0
-0.198770879976475 -0.120379516546289 0.0
-0.347878412287049 -0.226563641603307 0.0
-0.460117377464919 -0.330272599685333 0.0
-0.404138353334278 -0.307555146019516 0.0
-0.303185252592917 -0.203537266739044 0.0
-0.460117377464919 -0.330272599685333 0.0
-0.570493182549152 -0.457469492908143 0.0
-0.502888992267622 -0.435238051036101 0.0
-0.404138353334278 -0.307555146019516 0.0
-0.570493182549152 -0.457469492908143 0.0
-0.678874692529139 -0.608734567214421 0.0
-0.599514093766937 -0.586966312617944 0.0
-0.502888992267622 -0.435238051036101 0.0
-0.678874692529139 -0.608734567214421 0.0
-0.785072569865547 -0.783851279959817 0.0
-0.69403611982551 -0.762566122184653 0.0
-0.599514093766937 -0.586966312617944 0.0
-0.785072569865547 -0.783851279959817 0.0
-0.888962240853648 -0.982379997666032 0.0
-0.786430608443113 -0.961583425278513 0.0
-0.69403611982551 -0.762566122184653 0.0
-0.888962240853648 -0.982379997666032 0.0
-0.990471302658851 -1.20378942427708 0.0
-0.876676942053372 -1.18348558890991 0.0
-0.786430608443113 -0.961583425278513 0.0
-0.990471302658851 -1.20378942427708 0.0
-1.08956233184275 -1.44752593640643 0.0
-0.964761564266904 -1.42771643980206 0.0
-0.876676942053372 -1.18348558890991 0.0
-1.08956233184275 -1.44752593640643 0.0
-1.18621761884204 -1.71303341897825 0.0
-1.05067710620868 -1.69371895354082 0.0
-0.964761564266904 -1.42771643980206 0.0
-1.18621761884204 -1.71303341897825 0.0
-1.28042954496843 -1.99975917647363 0.0
-1.13441995049359 -1.98093995782894 0.0
-1.05067710620868 -1.69371895354082 0.0
-1.28042954496843 -1.99975917647363 0.0
-1.37219520150175 -2.30715407911495 0.0
-1.21598849125056 -2.28883015568 0.0
-1.13441995049359 -1.98093995782894 0.0
-1.37219520150175 -2.30715407911495 0.0
-1.46151367423644 -2.63467150560475 0.0
-1.29538208937231 -2.61684286998123 0.0
-1.21598849125056 -2.28883015568 0.0
-1.46151367423644 -2.63467150560475 0.0
-1.54838479276526 -2.98176630188004 0.0
-1.37260052815753 -2.96443293705235 0.0
-1.29538208937231 -2.61684286998123 0.0
-1.54838479276526 -2.98176630188004 0.0
-1.63280860935776 -3.34789408000575 0.0
-1.44764375521205 -3.33105597221916 0.0
-1.37260052815753 -2.96443293705235 0.0
-1.63280860935776 -3.34789408000575 0.0
-1.71478520948853 -3.73251081410458 0.0
-1.52051177163105 -3.71616795493032 0.0
-1.44764375521205 -3.33105597221916 0.0
-1.71478520948853 -3.73251081410458 0.0
-1.79431465819363 -4.13507263206362 0.0
-1.5912045899692 -4.11922501711583 0.0
-1.52051177163105 -3.71616795493032 0.0
-1.79431465819363 -4.13507263206362 0.0
-1.87139699478897 -4.55503571715984 0.0
-1.65972222151467 -4.53968334443031 0.0
-1.5912045899692 -4.11922501711583 0.0
-1.87139699478897 -4.55503571715984 0.0
-1.94603224100283 -4.99185626513726 0.0
-1.72606467484692 -4.97699913361295 0.0
-1.65972222151467 -4.53968334443031 0.0
-1.94603224100283 -4.99185626513726 0.0
-2.01822041084584 -5.44499046661763 0.0
-1.79023195838654 -5.43062857514742 0.0
-1.72606467484692 -4.97699913361295 0.0
-2.01822041084584 -5.44499046661763 0.0
-2.08796151980895 -5.91389450009656 0.0
-1.85222408456923 -5.90002784625627 0.0
-1.79023195838654 -5.43062857514742 0.0
-2.08796151980895 -5.91389450009656 0.0
-2.15525559418289 -6.39802452941439 0.0
-1.91204107534431 -6.38465310809042 0.0
-1.85222408456923 -5.90002784625627 0.0
-2.15525559418289 -6.39802452941439 0.0
-2.22010268212832 -6.8968367043564 0.0
-1.96968296945378 -6.88396050578061 0.0
-1.91204107534431 -6.38465310809042 0.0
-2.22010268212832 -6.8968367043564 0.0
-2.28250286810467 -7.40978716600976 0.0
-2.02514983208265 -7.39740617301062 0.0
-1.96968296945378 -6.88396050578061 0.0
-2.28250286810467 -7.40978716600976 0.0
-2.34245629182855 -7.93633206101676 0.0
-2.07844176719317 -7.92444624532621 0.0
-2.02514983208265 -7.39740617301062 0.0
-2.34245629182855 -7.93633206101676 0.0
-2.39996317198276 -8.47592757170088 0.0
-2.129558932087 -8.46453688933292 0.0
-2.07844176719317 -7.92444624532621 0.0
-2.39996317198276 -8.47592757170088 0.0
-2.45502383301294 -9.02802997264051 0.0
-2.17850155219465 -9.01713435872992 0.0
-2.129558932087 -8.46453688933292 0.0
-2.45502383301294 -9.02802997264051 0.0
-2.50763872981705 -9.59209572873825 0.0
-2.22526993129142 -9.5816950929374 0.0
-2.17850155219465 -9.01713435872992 0.0
-2.50763872981705 -9.59209572873825 0.0
-2.55780845891693 -10.1675816548727 0.0
-2.26986444760101 -10.1576758796547 0.0
-2.22526993129142 -9.5816950929374 0.0
-2.55780845891693 -10.1675816548727 0.0
-2.60553373439127 -10.7539451617766 0.0
-2.31228551867684 -10.7445341080571 0.0
-2.26986444760101 -10.1576758796547 0.0
-2.60553373439127 -10.7539451617766 0.0
-2.65081529067801 -11.3506446145071 0.0
-2.35253350649905 -11.341728142223 0.0
-2.31228551867684 -10.7445341080571 0.0
-2.65081529067801 -11.3506446145071 0.0
-2.69365365037949 -11.9571398241971 0.0
-2.39060851786822 -11.9487178402525 0.0
-2.35253350649905 -11.341728142223 0.0
-2.69365365037949 -11.9571398241971 0.0
-2.73404866186838 -12.5728926725224 0.0
-2.42651003335524 -12.56496522517 0.0
-2.39060851786822 -11.9487178402525 0.0
-2.73404866186838 -12.5728926725224 0.0
-2.77199866891034 -13.1973678178001 0.0
-2.46023627156947 -13.1899352651501 0.0
-2.42651003335524 -12.56496522517 0.0
-2.77199866891034 -13.1973678178001 0.0
-2.8074991270875 -13.8300333303236 0.0
-2.49178316809953 -13.8230966206532 0.0
-2.46023627156947 -13.1899352651501 0.0
-2.8074991270875 -13.8300333303236 0.0
-2.84054044302729 -14.4703609211549 0.0
-2.52114282969225 -14.4639220319458 0.0
-2.49178316809953 -13.8230966206532 0.0
-2.84054044302729 -14.4703609211549 0.0
-2.87110481303762 -15.1178251229674 0.0
-2.54830133379403 -15.1118877090441 0.0
-2.52114282969225 -14.4639220319458 0.0
-2.87110481303762 -15.1178251229674 0.0
-2.89916193767745 -15.7719003138077 0.0
-2.5732358179159 -15.7664706019676 0.0
-2.54830133379403 -15.1118877090441 0.0
-2.89916193767745 -15.7719003138077 0.0
-2.92466379132153 -16.4320538342709 0.0
-2.59591100377903 -16.4271417521545 0.0
-2.5732358179159 -15.7664706019676 0.0
-2.92466379132153 -16.4320538342709 0.0
-2.94753928497761 -17.0977327211698 0.0
-2.61627572101239 -17.0933531272076 0.0
-2.59591100377903 -16.4271417521545 0.0
-2.94753928497761 -17.0977327211698 0.0
-2.96769085948668 -17.7683410740775 0.0
-2.63426075332435 -17.764514712601 0.0
-2.61627572101239 -17.0933531272076 0.0
-2.96769085948668 -17.7683410740775 0.0
-2.98499690196263 -18.4432055035199 0.0
-2.64978052309566 -18.439958893179 0.0
-2.63426075332435 -17.764514712601 0.0
-2.98499690196263 -18.4432055035199 0.0
-2.99932621422058 -19.1215288129704 0.0
-2.66274268651268 -19.1188916835194 0.0
-2.64978052309566 -18.439958893179 0.0
-2.99932621422058 -19.1215288129704 0.0
-3.01057270917254 -19.8023390288505 0.0
-2.67307106297903 -19.8003373315332 0.0
-2.66274268651268 -19.1188916835194 0.0
-3.01057270917254 -19.8023390288505 0.0
-3.01871794178962 -20.4844544889209 0.0
-2.6807469204483 -20.4830968749255 0.0
-2.67307106297903 -19.8003373315332 0.0
-3.01871794178962 -20.4844544889209 0.0
-3.02392227162232 -21.1665077159236 0.0
-2.6858681232459 -21.1657649020755 0.0
-2.6807469204483 -20.4830968749255 0.0
-3.02392227162232 -21.1665077159236 0.0
-3.02662380255315 -21.8471053180256 0.0
-2.68871096332827 -21.8468852273187 0.0
-2.6858681232459 -21.1657649020755 0.0
-3.02662380255315 -21.8471053180256 0.0
-3.0275756880032 -22.5252661411977 0.0
-2.68977910194464 -22.5253690097335 0.0
-2.68871096332827 -21.8468852273187 0.0
-3.0275756880032 -22.5252661411977 0.0
-3.0277573517572 -23.2013359290106 0.0
-2.68997807016588 -23.2012348686991 0.0
-2.68977910194464 -22.5253690097335 0.0
0 0 0.0
-0.0930743673614782 -0.0513745996702332 0.0
-0.0784016326824305 -0.0363186152109293 0.0
0 0 0.0
-0.0930743673614782 -0.0513745996702332 0.0
-0.198770879976475 -0.120379516546289 0.0
-0.168305565605894 -0.0997790642075938 0.0
-0.0784016326824305 -0.0363186152109293 0.0
-0.198770879976475 -0.120379516546289 0.0
-0.303185252592917 -0.203537266739044 0.0
-0.260030357900087 -0.182750522378404 0.0
-0.168305565605894 -0.0997790642075938 0.0
-0.303185252592917 -0.203537266739044 0.0
-0.404138353334278 -0.307555146019516 0.0
-0.349489934856792 -0.287311170299594 0.0
-0.260030357900087 -0.182750522378404 0.0
-0.404138353334278 -0.307555146019516 0.0
-0.502888992267622 -0.435238051036101 0.0
-0.436508130209667 -0.41546494673703 0.0
-0.349489934856792 -0.287311170299594 0.0
-0.502888992267622 -0.435238051036101 0.0
-0.599514093766937 -0.586966312617944 0.0
-0.521398981959952 -0.567680556167297 0.0
-0.436508130209667 -0.41546494673703 0.0
-0.599514093766937 -0.586966312617944 0.0
-0.69403611982551 -0.762566122184653 0.0
-0.604272658315619 -0.743744443922798 0.0
-0.521398981959952 -0.567680556167297 0.0
-0.69403611982551 -0.762566122184653 0.0
-0.786430608443113 -0.961583425278513 0.0
-0.685193796132393 -0.943215198162421 0.0
-0.604272658315619 -0.743744443922798 0.0
-0.786430608443113 -0.961583425278513 0.0
-0.876676942053372 -1.18348558890991 0.0
-0.764190497333762 -1.16556273372484 0.0
-0.685193796132393 -0.943215198162421 0.0
-0.876676942053372 -1.18348558890991 0.0
-0.964761564266904 -1.42771643980206 0.0
-0.841275736829553 -1.41023466951231 0.0
-0.764190497333762 -1.16556273372484 0.0
-0.964761564266904 -1.42771643980206 0.0
-1.05067710620868 -1.69371895354082 0.0
-0.916454935803416 -1.67667596690676 0.0
-0.841275736829553 -1.41023466951231 0.0
-1.05067710620868 -1.69371895354082 0.0
-1.13441995049359 -1.98093995782894 0.0
-0.98973020057998 -1.96433466764533 0.0
-0.916454935803416 -1.67667596690676 0.0
-1.13441995049359 -1.98093995782894 0.0
-1.21598849125056 -2.28883015568 0.0
-1.06110221886267 -2.27266208335678 0.0
-0.98973020057998 -1.96433466764533 0.0
-1.21598849125056 -2.28883015568 0.0
-1.29538208937231 -2.61684286998123 0.0
-1.13057114085549 -2.60111182981057 0.0
-1.06110221886267 -2.27266208335678 0.0
-1.29538208937231 -2.61684286998123 0.0
-1.37260052815753 -2.96443293705235 0.0
-1.19813694579223 -2.94913886854164 0.0
-1.13057114085549 -2.60111182981057 0.0
-1.37260052815753 -2.96443293705235 0.0
-1.44764375521205 -3.33105597221916 0.0
-1.26379958019388 -3.31619886289173 0.0
-1.19813694579223 -2.94913886854164 0.0
-1.44764375521205 -3.33105597221916 0.0
-1.52051177163105 -3.71616795493032 0.0
-1.32755899979537 -3.70174780732837 0.0
-1.26379958019388 -3.31619886289173 0.0
-1.52051177163105 -3.71616795493032 0.0
-1.5912045899692 -4.11922501711583 0.0
-1.38941517638682 -4.10524183658023 0.0
-1.32755899979537 -3.70174780732837 0.0
-1.5912045899692 -4.11922501711583 0.0
-1.65972222151467 -4.53968334443031 0.0
-1.44936809462076 -4.52613713543051 0.0
-1.38941517638682 -4.10524183658023 0.0
-1.65972222151467 -4.53968334443031 0.0
-1.72606467484692 -4.97699913361295 0.0
-1.50741774788647 -4.96388989915688 0.0
-1.44936809462076 -4.52613713543051 0.0
-1.72606467484692 -4.97699913361295 0.0
-1.79023195838654 -5.43062857514742 0.0
-1.56356413584004 -5.41795631697989 0.0
-1.50741774788647 -4.96388989915688 0.0
-1.79023195838654 -5.43062857514742 0.0
-1.85222408456923 -5.90002784625627 0.0
-1.61780726395915 -5.88779256499511 0.0
-1.56356413584004 -5.41795631697989 0.0
-1.85222408456923 -5.90002784625627 0.0
-1.91204107534431 -6.38465310809042 0.0
-1.67014714495607 -6.37285480299929 0.0
-1.61780726395915 -5.88779256499511 0.0
-1.91204107534431 -6.38465310809042 0.0
-1.96968296945378 -6.88396050578061 0.0
-1.72058380188718 -6.87259917404067 0.0
-1.67014714495607 -6.37285480299929 0.0
-1.96968296945378 -6.88396050578061 0.0
-2.02514983208265 -7.39740617301062 0.0
-1.76911727285699 -7.38648180836406 0.0
-1.72058380188718 -6.87259917404067 0.0