# vtk DataFile Version 4.1
test1
ASCII

DATASET UNSTRUCTURED_GRID
POINTS 1066 double
0 0 0.0
2.5 0 0.0
5 0 0.0
7.5 0 0.0
10 0 0.0
12.5 0 0.0
15 0 0.0
17.5 0 0.0
20 0 0.0
22.5 0 0.0
25 0 0.0
27.5 0 0.0
30 0 0.0
32.5 0 0.0
35 0 0.0
37.5 0 0.0
40 0 0.0
42.5 0 0.0
45 0 0.0
47.5 0 0.0
50 0 0.0
52.5 0 0.0
55 0 0.0
57.5 0 0.0
60 0 0.0
62.5 0 0.0
65 0 0.0
67.5 0 0.0
70 0 0.0
72.5 0 0.0
75 0 0.0
77.5 0 0.0
80 0 0.0
82.5 0 0.0
85 0 0.0
87.5 0 0.0
90 0 0.0
92.5 0 0.0
95 0 0.0
97.5 0 0.0
100 0 0.0
0 2 0.0
2.5 2 0.0
5 2 0.0
7.5 2 0.0
10 2 0.0
12.5 2 0.0
15 2 0.0
17.5 2 0.0
20 2 0.0
22.5 2 0.0
25 2 0.0
27.5 2 0.0
30 2 0.0
32.5 2 0.0
35 2 0.0
37.5 2 0.0
40 2 0.0
42.5 2 0.0
45 2 0.0
47.5 2 0.0
50 2 0.0
52.5 2 0.0
55 2 0.0
57.5 2 0.0
60 2 0.0
62.5 2 0.0
65 2 0.0
67.5 2 0.0
70 2 0.0
72.5 2 0.0
75 2 0.0
77.5 2 0.0
80 2 0.0
82.5 2 0.0
85 2 0.0
87.5 2 0.0
90 2 0.0
92.5 2 0.0
95 2 0.0
97.5 2 0.0
100 2 0.0
0 4 0.0
2.5 4 0.0
5 4 0.0
7.5 4 0.0
10 4 0.0
12.5 4 0.0
15 4 0.0
17.5 4 0.0
20 4 0.0
22.5 4 0.0
25 4 0.0
27.5 4 0.0
30 4 0.0
32.5 4 0.0
35 4 0.0
37.5 4 0.0
40 4 0.0
42.5 4 0.0
45 4 0.0
47.5 4 0.0
50 4 0.0
52.5 4 0.0
55 4 0.0
57.5 4 0.0
60 4 0.0
62.5 4 0.0
65 4 0.0
67.5 4 0.0
70 4 0.0
72.5 4 0.0
75 4 0.0
77.5 4 0.0
80 4 0.0
82.5 4 0.0
85 4 0.0
87.5 4 0.0
90 4 0.0
92.5 4 0.0
95 4 0.0
97.5 4 0.0
100 4 0.0
0 6 0.0
2.5 6 0.0
5 6 0.0
7.5 6 0.0
10 6 0.0
12.5 6 0.0
15 6 0.0
17.5 6 0.0
20 6 0.0
22.5 6 0.0
25 6 0.0
27.5 6 0.0
30 6 0.0
32.5 6 0.0
35 6 0.0
37.5 6 0.0
40 6 0.0
42.5 6 0.0
45 6 0.0
47.5 6 0.0
50 6 0.0
52.5 6 0.0
55 6 0.0
57.5 6 0.0
60 6 0.0
62.5 6 0.0
65 6 0.0
67.5 6 0.0
70 6 0.0
72.5 6 0.0
75 6 0.0
77.5 6 0.0
80 6 0.0
82.5 6 0.0
85 6 0.0
87.5 6 0.0
90 6 0.0
92.5 6 0.0
95 6 0.0
97.5 6 0.0
100 6 0.0
0 8 0.0
2.5 8 0.0
5 8 0.0
7.5 8 0.0
10 8 0.0
12.5 8 0.0
15 8 0.0
17.5 8 0.0
20 8 0.0
22.5 8 0.0
25 8 0.0
27.5 8 0.0
30 8 0.0
32.5 8 0.0
35 8 0.0
37.5 8 0.0
40 8 0.0
42.5 8 0.0
45 8 0.0
47.5 8 0.0
50 8 0.0
52.5 8 0.0
55 8 0.0
57.5 8 0.0
60 8 0.0
62.5 8 0.0
65 8 0.0
67.5 8 0.0
70 8 0.0
72.5 8 0.0
75 8 0.0
77.5 8 0.0
80 8 0.0
82.5 8 0.0
85 8 0.0
87.5 8 0.0
90 8 0.0
92.5 8 0.0
95 8 0.0
97.5 8 0.0
100 8 0.0
0 10 0.0
2.5 10 0.0
5 10 0.0
7.5 10 0.0
10 10 0.0
12.5 10 0.0
15 10 0.0
17.5 10 0.0
20 10 0.0
22.5 10 0.0
25 10 0.0
27.5 10 0.0
30 10 0.0
32.5 10 0.0
35 10 0.0
37.5 10 0.0
40 10 0.0
42.5 10 0.0
45 10 0.0
47.5 10 0.0
50 10 0.0
52.5 10 0.0
55 10 0.0
57.5 10 0.0
60 10 0.0
62.5 10 0.0
65 10 0.0
67.5 10 0.0
70 10 0.0
72.5 10 0.0
75 10 0.0
77.5 10 0.0
80 10 0.0
82.5 10 0.0
85 10 0.0
87.5 10 0.0
90 10 0.0
92.5 10 0.0
95 10 0.0
97.5 10 0.0
100 10 0.0
0 12 0.0
2.5 12 0.0
5 12 0.0
7.5 12 0.0
10 12 0.0
12.5 12 0.0
15 12 0.0
17.5 12 0.0
20 12 0.0
22.5 12 0.0
25 12 0.0
27.5 12 0.0
30 12 0.0
32.5 12 0.0
35 12 0.0
37.5 12 0.0
40 12 0.0
42.5 12 0.0
45 12 0.0
47.5 12 0.0
50 12 0.0
52.5 12 0.0
55 12 0.0
57.5 12 0.0
60 12 0.0
62.5 12 0.0
65 12 0.0
67.5 12 0.0
70 12 0.0
72.5 12 0.0
75 12 0.0
77.5 12 0.0
80 12 0.0
82.5 12 0.0
85 12 0.0
87.5 12 0.0
90 12 0.0
92.5 12 0.0
95 12 0.0
97.5 12 0.0
100 12 0.0
0 14 0.0
2.5 14 0.0
5 14 0.0
7.5 14 0.0
10 14 0.0
12.5 14 0.0
15 14 0.0
17.5 14 0.0
20 14 0.0
22.5 14 0.0
25 14 0.0
27.5 14 0.0
30 14 0.0
32.5 14 0.0
35 14 0.0
37.5 14 0.0
40 14 0.0
42.5 14 0.0
45 14 0.0
47.5 14 0.0
50 14 0.0
52.5 14 0.0
55 14 0.0
57.5 14 0.0
60 14 0.0
62.5 14 0.0
65 14 0.0
67.5 14 0.0
70 14 0.0
72.5 14 0.0
75 14 0.0
77.5 14 0.0
80 14 0.0
82.5 14 0.0
85 14 0.0
87.5 14 0.0
90 14 0.0
92.5 14 0.0
95 14 0.0
97.5 14 0.0
100 14 0.0
0 16 0.0
2.5 16 0.0
5 16 0.0
7.5 16 0.0
10 16 0.0
12.5 16 0.0
15 16 0.0
17.5 16 0.0
20 16 0.0
22.5 16 0.0
25 16 0.0
27.5 16 0.0
30 16 0.0
32.5 16 0.0
35 16 0.0
37.5 16 0.0
40 16 0.0
42.5 16 0.0
45 16 0.0
47.5 16 0.0
50 16 0.0
52.5 16 0.0
55 16 0.0
57.5 16 0.0
60 16 0.0
62.5 16 0.0
65 16 0.0
67.5 16 0.0
70 16 0.0
72.5 16 0.0
75 16 0.0
77.5 16 0.0
80 16 0.0
82.5 16 0.0
85 16 0.0
87.5 16 0.0
90 16 0.0
92.5 16 0.0
95 16 0.0
97.5 16 0.0
100 16 0.0
0 18 0.0
2.5 18 0.0
5 18 0.0
7.5 18 0.0
10 18 0.0
12.5 18 0.0
15 18 0.0
17.5 18 0.0
20 18 0.0
22.5 18 0.0
25 18 0.0
27.5 18 0.0
30 18 0.0
32.5 18 0.0
35 18 0.0
37.5 18 0.0
40 18 0.0
42.5 18 0.0
45 18 0.0
47.5 18 0.0
50 18 0.0
52.5 18 0.0
55 18 0.0
57.5 18 0.0
60 18 0.0
62.5 18 0.0
65 18 0.0
67.5 18 0.0
70 18 0.0
72.5 18 0.0
75 18 0.0
77.5 18 0.0
80 18 0.0
82.5 18 0.0
85 18 0.0
87.5 18 0.0
90 18 0.0
92.5 18 0.0
95 18 0.0
97.5 18 0.0
100 18 0.0
0 20 0.0
2.5 20 0.0
5 20 0.0
7.5 20 0.0
10 20 0.0
12.5 20 0.0
15 20 0.0
17.5 20 0.0
20 20 0.0
22.5 20 0.0
25 20 0.0
27.5 20 0.0
30 20 0.0
32.5 20 0.0
35 20 0.0
37.5 20 0.0
40 20 0.0
42.5 20 0.0
45 20 0.0
47.5 20 0.0
50 20 0.0
52.5 20 0.0
55 20 0.0
57.5 20 0.0
60 20 0.0
62.5 20 0.0
65 20 0.0
67.5 20 0.0
70 20 0.0
72.5 20 0.0
75 20 0.0
77.5 20 0.0
80 20 0.0
82.5 20 0.0
85 20 0.0
87.5 20 0.0
90 20 0.0
92.5 20 0.0
95 20 0.0
97.5 20 0.0
100 20 0.0
0 22 0.0
2.5 22 0.0
5 22 0.0
7.5 22 0.0
10 22 0.0
12.5 22 0.0
15 22 0.0
17.5 22 0.0
20 22 0.0
22.5 22 0.0
25 22 0.0
27.5 22 0.0
30 22 0.0
32.5 22 0.0
35 22 0.0
37.5 22 0.0
40 22 0.0
42.5 22 0.0
45 22 0.0
47.5 22 0.0
50 22 0.0
52.5 22 0.0
55 22 0.0
57.5 22 0.0
60 22 0.0
62.5 22 0.0
65 22 0.0
67.5 22 0.0
70 22 0.0
72.5 22 0.0
75 22 0.0
77.5 22 0.0
80 22 0.0
82.5 22 0.0
85 22 0.0
87.5 22 0.0
90 22 0.0
92.5 22 0.0
95 22 0.0
97.5 22 0.0
100 22 0.0
0 24 0.0
2.5 24 0.0
5 24 0.0
7.5 24 0.0
10 24 0.0
12.5 24 0.0
15 24 0.0
17.5 24 0.0
20 24 0.0
22.5 24 0.0
25 24 0.0
27.5 24 0.0
30 24 0.0
32.5 24 0.0
35 24 0.0
37.5 24 0.0
40 24 0.0
42.5 24 0.0
45 24 0.0
47.5 24 0.0
50 24 0.0
52.5 24 0.0
55 24 0.0
57.5 24 0.0
60 24 0.0
62.5 24 0.0
65 24 0.0
67.5 24 0.0
70 24 0.0
72.5 24 0.0
75 24 0.0
77.5 24 0.0
80 24 0.0
82.5 24 0.0
85 24 0.0
87.5 24 0.0
90 24 0.0
92.5 24 0.0
95 24 0.0
97.5 24 0.0
100 24 0.0
0 26 0.0
2.5 26 0.0
5 26 0.0
7.5 26 0.0
10 26 0.0
12.5 26 0.0
15 26 0.0
17.5 26 0.0
20 26 0.0
22.5 26 0.0
25 26 0.0
27.5 26 0.0
30 26 0.0
32.5 26 0.0
35 26 0.0
37.5 26 0.0
40 26 0.0
42.5 26 0.0
45 26 0.0
47.5 26 0.0
50 26 0.0
52.5 26 0.0
55 26 0.0
57.5 26 0.0
60 26 0.0
62.5 26 0.0
65 26 0.0
67.5 26 0.0
70 26 0.0
72.5 26 0.0
75 26 0.0
77.5 26 0.0
80 26 0.0
82.5 26 0.0
85 26 0.0
87.5 26 0.0
90 26 0.0
92.5 26 0.0
95 26 0.0
97.5 26 0.0
100 26 0.0
0 28 0.0
2.5 28 0.0
5 28 0.0
7.5 28 0.0
10 28 0.0
12.5 28 0.0
15 28 0.0
17.5 28 0.0
20 28 0.0
22.5 28 0.0
25 28 0.0
27.5 28 0.0
30 28 0.0
32.5 28 0.0
35 28 0.0
37.5 28 0.0
40 28 0.0
42.5 28 0.0
45 28 0.0
47.5 28 0.0
50 28 0.0
52.5 28 0.0
55 28 0.0
57.5 28 0.0
60 28 0.0
62.5 28 0.0
65 28 0.0
67.5 28 0.0
70 28 0.0
72.5 28 0.0
75 28 0.0
77.5 28 0.0
80 28 0.0
82.5 28 0.0
85 28 0.0
87.5 28 0.0
90 28 0.0
92.5 28 0.0
95 28 0.0
97.5 28 0.0
100 28 0.0
0 30 0.0
2.5 30 0.0
5 30 0.0
7.5 30 0.0
10 30 0.0
12.5 30 0.0
15 30 0.0
17.5 30 0.0
20 30 0.0
22.5 30 0.0
25 30 0.0
27.5 30 0.0
30 30 0.0
32.5 30 0.0
35 30 0.0
37.5 30 0.0
40 30 0.0
42.5 30 0.0
45 30 0.0
47.5 30 0.0
50 30 0.0
52.5 30 0.0
55 30 0.0
57.5 30 0.0
60 30 0.0
62.5 30 0.0
65 30 0.0
67.5 30 0.0
70 30 0.0
72.5 30 0.0
75 30 0.0
77.5 30 0.0
80 30 0.0
82.5 30 0.0
85 30 0.0
87.5 30 0.0
90 30 0.0
92.5 30 0.0
95 30 0.0
97.5 30 0.0
100 30 0.0
0 32 0.0
2.5 32 0.0
5 32 0.0
7.5 32 0.0
10 32 0.0
12.5 32 0.0
15 32 0.0
17.5 32 0.0
20 32 0.0
22.5 32 0.0
25 32 0.0
27.5 32 0.0
30 32 0.0
32.5 32 0.0
35 32 0.0
37.5 32 0.0
40 32 0.0
42.5 32 0.0
45 32 0.0
47.5 32 0.0
50 32 0.0
52.5 32 0.0
55 32 0.0
57.5 32 0.0
60 32 0.0
62.5 32 0.0
65 32 0.0
67.5 32 0.0
70 32 0.0
72.5 32 0.0
75 32 0.0
77.5 32 0.0
80 32 0.0
82.5 32 0.0
85 32 0.0
87.5 32 0.0
90 32 0.0
92.5 32 0.0
95 32 0.0
97.5 32 0.0
100 32 0.0
0 34 0.0
2.5 34 0.0
5 34 0.0
7.5 34 0.0
10 34 0.0
12.5 34 0.0
15 34 0.0
17.5 34 0.0
20 34 0.0
22.5 34 0.0
25 34 0.0
27.5 34 0.0
30 34 0.0
32.5 34 0.0
35 34 0.0
37.5 34 0.0
40 34 0.0
42.5 34 0.0
45 34 0.0
47.5 34 0.0
50 34 0.0
52.5 34 0.0
55 34 0.0
57.5 34 0.0
60 34 0.0
62.5 34 0.0
65 34 0.0
67.5 34 0.0
70 34 0.0
72.5 34 0.0
75 34 0.0
77.5 34 0.0
80 34 0.0
82.5 34 0.0
85 34 0.0
87.5 34 0.0
90 34 0.0
92.5 34 0.0
95 34 0.0
97.5 34 0.0
100 34 0.0
0 36 0.0
2.5 36 0.0
5 36 0.0
7.5 36 0.0
10 36 0.0
12.5 36 0.0
15 36 0.0
17.5 36 0.0
20 36 0.0
22.5 36 0.0
25 36 0.0
27.5 36 0.0
30 36 0.0
32.5 36 0.0
35 36 0.0
37.5 36 0.0
40 36 0.0
42.5 36 0.0
45 36 0.0
47.5 36 0.0
50 36 0.0
52.5 36 0.0
55 36 0.0
57.5 36 0.0
60 36 0.0
62.5 36 0.0
65 36 0.0
67.5 36 0.0
70 36 0.0
72.5 36 0.0
75 36 0.0
77.5 36 0.0
80 36 0.0
82.5 36 0.0
85 36 0.0
87.5 36 0.0
90 36 0.0
92.5 36 0.0
95 36 0.0
97.5 36 0.0
100 36 0.0
0 38 0.0
2.5 38 0.0
5 38 0.0
7.5 38 0.0
10 38 0.0
12.5 38 0.0
15 38 0.0
17.5 38 0.0
20 38 0.0
22.5 38 0.0
25 38 0.0
27.5 38 0.0
30 38 0.0
32.5 38 0.0
35 38 0.0
37.5 38 0.0
40 38 0.0
42.5 38 0.0
45 38 0.0
47.5 38 0.0
50 38 0.0
52.5 38 0.0
55 38 0.0
57.5 38 0.0
60 38 0.0
62.5 38 0.0
65 38 0.0
67.5 38 0.0
70 38 0.0
72.5 38 0.0
75 38 0.0
77.5 38 0.0
80 38 0.0
82.5 38 0.0
85 38 0.0
87.5 38 0.0
90 38 0.0
92.5 38 0.0
95 38 0.0
97.5 38 0.0
100 38 0.0
0 40 0.0
2.5 40 0.0
5 40 0.0
7.5 40 0.0
10 40 0.0
12.5 40 0.0
15 40 0.0
17.5 40 0.0
20 40 0.0
22.5 40 0.0
25 40 0.0
27.5 40 0.0
30 40 0.0
32.5 40 0.0
35 40 0.0
37.5 40 0.0
40 40 0.0
42.5 40 0.0
45 40 0.0
47.5 40 0.0
50 40 0.0
52.5 40 0.0
55 40 0.0
57.5 40 0.0
60 40 0.0
62.5 40 0.0
65 40 0.0
67.5 40 0.0
70 40 0.0
72.5 40 0.0
75 40 0.0
77.5 40 0.0
80 40 0.0
82.5 40 0.0
85 40 0.0
87.5 40 0.0
90 40 0.0
92.5 40 0.0
95 40 0.0
97.5 40 0.0
100 40 0.0
0 42 0.0
2.5 42 0.0
5 42 0.0
7.5 42 0.0
10 42 0.0
12.5 42 0.0
15 42 0.0
17.5 42 0.0
20 42 0.0
22.5 42 0.0
25 42 0.0
27.5 42 0.0
30 42 0.0
32.5 42 0.0
35 42 0.0
37.5 42 0.0
40 42 0.0
42.5 42 0.0
45 42 0.0
47.5 42 0.0
50 42 0.0
52.5 42 0.0
55 42 0.0
57.5 42 0.0
60 42 0.0
62.5 42 0.0
65 42 0.0
67.5 42 0.0
70 42 0.0
72.5 42 0.0
75 42 0.0
77.5 42 0.0
80 42 0.0
82.5 42 0.0
85 42 0.0
87.5 42 0.0
90 42 0.0
92.5 42 0.0
95 42 0.0
97.5 42 0.0
100 42 0.0
0 44 0.0
2.5 44 0.0
5 44 0.0
7.5 44 0.0
10 44 0.0
12.5 44 0.0
15 44 0.0
17.5 44 0.0
20 44 0.0
22.5 44 0.0
25 44 0.0
27.5 44 0.0
30 44 0.0
32.5 44 0.0
35 44 0.0
37.5 44 0.0
40 44 0.0
42.5 44 0.0
45 44 0.0
47.5 44 0.0
50 44 0.0
52.5 44 0.0
55 44 0.0
57.5 44 0.0
60 44 0.0
62.5 44 0.0
[...]
POINT_DATA 1066
SCALARS Distance_from_orgin float 1
LOOKUP_TABLE default
0
2.5
5
7.5
10
12.5
15
17.5
20
22.5
25
27.5
30
32.5
35
37.5
40
42.5
45
47.5
50
52.5
55
57.5
60
62.5
65
67.5
70
72.5
75
77.5
80
82.5
85
87.5
90
92.5
95
97.5
100
2
3.20156211871642
5.3851648071345
7.76208734813001
10.1980390271856
12.6589889011722
15.1327459504216
17.6139149538085
20.0997512422418
22.588713996153
25.0798724079689
27.5726313579245
30.0665927567458
32.5614803103299
35.0570962859162
37.5532954612508
40.0499687890016
42.5470327990096
45.0444225182208
47.5420866180693
50.0399840127872
52.5380814267137
55.0363516232681
57.534772094795
60.0333240792145
62.5319918121916
65.0307619515564
67.5296231294089
70.0285656000464
72.5275809606249
75.0266619276108
77.5258021564434
80.0249960949702
82.5242388635
85.0235261559999
87.522854158214
90.0222194794152
92.5216190952147
95.0210502993942
97.520510663142
100.0199980004
4
4.7169905660283
6.40312423743285
8.5
10.770329614269
13.1244047484067
15.52417469626
17.9513230710162
20.3960780543711
22.8527897640529
25.3179778023443
27.7893864631805
30.2654919008431
32.7452286600659
35.2278299076171
37.7127299462662
40.1995024844836
42.687820276983
45.1774279923061
47.6681235208604
50.1597448159378
52.652160449501
55.145262715849
57.6389625166866
60.1331855134916
62.6278691957502
65.1229606206597
67.6184146516317
70.1141925718324
72.6102609828666
75.1065909225016
77.6031571522706
80.0999375780032
82.5969127752363
85.0940655980192
87.591380854511
90.0888450364417
92.5864460922872
95.0841732361385
97.5820167858812
100.079968025574
6
6.5
7.81024967590665
9.60468635614927
11.6619037896906
13.865424623862
16.1554944214035
18.5
20.8806130178211
23.28626204439
25.7099202643649
28.1469358900751
30.5941170815567
33.0492057393215
35.5105618091294
37.9769667035165
40.4474968323134
42.921439864012
45.3982378512647
47.8774477181063
50.3587132480567
52.8417448614256
55.3263047744922
57.8121959451464
60.2992537267253
62.7873394881484
65.2763356814704
67.7661419884591
70.2566722810012
72.7478522019723
75.2396172239067
77.7319110790414
80.2246844805263
82.7178940737734
85.2115015710907
87.705473033329
90.1997782702374
92.6943903372799
95.1892851112981
97.6844409309896
100.179838290946
8
8.38152730712011
9.4339811320566
10.9658560997307
12.8062484748657
14.8408220796558
17
19.2418814048939
21.540659228538
23.8799078725191
26.2488094968134
28.6400069832394
31.04834939252
33.4701359423591
35.9026461420325
38.3438391400757
40.7921561087423
43.2463871323374
45.7055795281058
48.1689734165054
50.6359556046887
53.1060260234185
55.578772926361
58.0538543078752
60.5309838016862
63.0099198539405
65.4904573201318
67.9724208778825
70.4556598152341
72.9400438716622
75.4254598925323
77.9118091177454
80.3990049689671
82.8869712319132
85.375640553966
87.8649531952302
90.3548559846121
92.8453014427763
95.3362470417207
97.8276545768118
100.319489631876
10
10.3077640640442
11.1803398874989
12.5
14.142135623731
16.0078105935821
18.0277563773199
20.1556443707464
22.3606797749979
24.6221445044903
26.9258240356725
29.2617497767991
31.6227766016838
34.0036762718386
36.4005494464026
38.8104367406501
41.2310562561766
43.6606229914325
46.0977222864644
48.541219597369
50.9901951359278
53.4438958160799
55.9016994374947
58.3630876496438
60.8276253029822
63.2949445058608
65.7647321898295
68.2367203197809
70.7106781186548
73.1864058415222
75.6637297521078
78.1424980404389
80.6225774829855
83.1038506929733
85.5862138431184
88.0695747690427
90.5538513813742
93.038970329642
95.524865872714
98.0114789195633
100.498756211209
12
12.2576506721313
13
14.1509716980849
15.6204993518133
17.3277234511635
19.2093727122985
21.2190951739229
23.3238075793812
25.5
27.7308492477241
30.004166377355
32.310988842807
34.64462440264
37
39.3732142452201
41.7612260356422
44.1616349335031
46.5725240887801
48.9923463410358
51.4198405287298
53.8539692130487
56.2938717801503
58.7388287251287
61.1882341631134
63.641574461982
66.098411478643
68.5583692921586
71.0211236182588
73.4863932983515
75.953933407033
78.423529632375
80.8949936646267
83.3681593895415
85.842879728024
88.3190239982304
90.7964757025293
93.2751306619294
95.7548954362126
98.2356859801976
100.717426496113
14
14.2214626533279
14.8660687473185
15.8823801742686
17.2046505340853
18.7683243791235
20.5182845286832
22.410934831015
24.4131112314674
26.5
28.6530975637888
30.8585482484189
33.1058907144937
35.387144558441
37.6961536499415
40.0281151192509
42.3792402008342
44.7465082436608
47.1274866717927
49.520197899443
51.9230199429887
54.3346114369101
56.7538544946508
59.1798107465713
61.6116872029975
64.0488095127458
66.4906008395172
68.9365650435239
71.386273190299
73.8393526515502
76.2954782408499
78.7543649583945
81.2157620169878
83.6794478949282
86.1452262171271
88.6129223082051
91.0823802938856
93.5534606521854
96.0260381354974
98.5
100.975244490915
16
16.1941347407016
16.7630546142402
17.6705970470723
18.8679622641132
20.303940504247
21.9317121994613
23.7118114027588
25.6124969497314
27.608875384557
29.6816441593117
31.8158765398661
34
36.2249913733599
38.4837628097877
40.7707002637924
43.081318457076
45.4120028186382
47.7598157450382
50.122350304031
52.4976189936268
54.8839685154053
57.2800139664787
59.6845876252823
62.0966987850401
64.5155020130821
66.9402718847182
69.3703827292311
71.805292284065
74.2445284179245
76.6876782801514
79.1343793808987
81.5843122174846
84.0371941464016
86.4927742646749
88.9508291136176
91.4111590562115
93.8735852090459
96.3379468330107
98.8040991052497
101.271911209377
18
18.1727818453862
18.6815416922694
19.5
20.591260281974
21.9146070008111
23.43074902772
25.1047804212664
26.9072480941474
28.8140590684478
30.8058436014987
32.8671568590896
34.9857113690718
37.1517159765198
39.3573373083089
41.5962738715861
43.8634243989226
46.1546314035764
48.4664832642105
50.7961612722851
53.1413210223457
55.5
57.8705451849211
60.2515559965052
62.6418390534633
65.0403720776565
67.446274915669
69.8587861331701
72.2772439983706
74.7010709427917
77.1297607930946
79.5628682238141
82
84.4408076702254
86.8849814409832
89.3322450182464
91.7823512446701
94.2350783944068
96.6902270139025
99.1476172179645
101.607086367044
20
20.1556443707464
20.6155281280883
21.3600093632938
22.3606797749979
23.5849528301415
25
26.5753645318366
28.2842712474619
30.1039864469807
32.0156211871642
34.0036762718386
36.0555127546399
38.1608438061844
40.3112887414927
42.5
44.7213595499958
46.9707355701398
49.2442890089805
51.5388203202208
53.851648071345
56.1805126356106
58.5234995535981
60.8789783094296
63.2455532033676
65.6220237420334
68.0073525436772
70.4006392016436
72.8010988928052
75.2080447824566
77.6208734813001
80.0390529679106
82.4621125123532
84.8896342317482
87.3212459828649
89.7566153550812
92.1954445729289
94.6374661537385
97.082439194738
99.5301461869719
101.980390271856
22
22.1415898254845
22.561028345357
23.2432785983389
24.1660919471891
25.30316185776
26.6270539113887
28.1113855937412
29.732137494637
31.4682379551191
33.3016516106934
35.2171833058807
37.2021504754766
39.2460189063808
41.3400532171888
43.4770054166567
45.6508488420533
47.8565564996062
50.0899191454728
52.3473972609909
54.6260011349907
56.9231938668237
59.2368128784795
61.5650062941603
63.9061812346818
66.2589616580278
68.6221538571911
70.9947181133921
73.3757453113766
75.7644375680306
78.1600921186765
80.5620878577511
82.9698740507662
85.3829608294301
87.8009111570034
90.2233340106649
92.6498785752038
95.0802292803294
97.5141015443408
99.9512381113911
102.391405889362
24
24.1298570240273
24.5153013442625
25.1445819213603
26
27.0601182554696
28.3019433961698
29.7026934805583
31.2409987036266
32.897568299192
34.6554469023269
36.5
38.4187454245971
40.4011138460315
42.4381903478459
44.5224662389675
46.6476151587624
48.8082984747471
51
53.2188876246018
55.4616984954482
57.7256442146816
60.00833275471
62.3077041785364
64.621977685614
66.9496079152074
69.28924880528
71.6397236175573
74
76.3691691718589
78.7464284904401
81.1310667993464
83.5224520712844
85.9200209497181
88.3232698670062
90.731747475732
93.1450481775601
95.5628065724317
97.9846926820715
100.410407827077
102.83968105746
26
26.119915773218
26.4764045897475
27.0601182554696
27.8567765543682
28.8487434735033
30.0166620396073
31.3408678884296
32.8024389337135
34.3838624939084
36.0693775937429
37.8450789403325
39.6988664825584
41.6203075433135
43.6004587131833
45.6316775935315
47.7074417675063
49.8221838140401
51.9711458407451
54.150253923689
56.3560112144215
58.5854077394704
60.8358446970205
63.1050711115993
65.3911308970873
67.6923186188802
70.0071424927486
72.334293388406
74.6726188103779
77.0211010048545
79.3788384898645
81.7450304299901
84.1189633792524
86.5
88.8875694346516
91.2811590636315
93.680307429043
96.0845981414295
98.4936546179499
100.90713552569
103.324730824716
28
28.1113855937412
28.4429253066558
28.9870660812715
29.732137494637
30.6634962129239
31.7647603485372
33.0189339621981
34.4093010681705
35.9200501113236
37.5366487582469
39.2460189063808
41.0365690573664
42.8981351576033
44.8218696620299
46.8001068374849
48.8262224629348
50.8944987203922
53
55.1384620750343
57.3061951275776
59.5
61.7170964968379
63.9550623484959
66.2117814289874
68.4853999039211
70.774289116882
73.0770141699837
75.3923072998831
77.7190452849236
80.0562302385017
82.4029732473289
84.7584804016684
87.1220408392733
89.4930164873215
91.8708332388468
94.2549733435854
96.6449688292153
99.040395798886
101.440869475769
103.846039885977
30
30.1039864469807
30.4138126514911
30.9232921921325
31.6227766016838
32.5
33.5410196624968
34.7311099736245
36.0555127546399
37.5
39.0512483795333
40.6970514902493
42.4264068711929
44.2295150323853
46.0977222864644
48.0234317807464
50
52.021630116712
54.0832691319598
56.1805126356106
58.309518948453
60.4669331122391
62.6498204307083
64.8556088553642
67.0820393249937
69.3271231193102
71.5891053163818
73.8664335134708
76.1577310586391
78.4617741323761
80.7774721070176
83.1038506929733
85.4400374531753
87.7852493303972
90.1387818865997
92.5
94.8683298050514
97.2432516938836
99.6242942258564
102.011028815516
104.403065089105
32
32.0975076914081
32.3882694814033
32.8671568590896
33.5261092284804
34.3547667726038
35.3411940941446
36.4725924496738
37.7359245282264
39.1184099881373
40.6078810084939
42.1930088995796
43.8634243989226
45.6097577279248
47.4236228055175
49.2975658628294
51.2249938994628
53.2000939848794
55.2177507691141
57.2734668061922
59.3632883186233
61.4837376872942
63.6317530797321
65.8046350951056
68
70.2157389763862
72.4499827467198
74.7010709427917
76.9675256195754
79.2480283666414
81.5414005275848
83.8465860962747
86.1626369141521
88.4886998435394
90.8240056372763
93.1678592648774
95.5196314900764
97.8787515245265
100.244700608062
102.61700638783
104.995237987254
34
34.0917878674616
34.3656805548792
34.8173807171074
35.4400902933387
36.2249913733599
37.1618083521241
38.2393776099978
39.446165846632
40.7707002637924
42.2018956920184
43.7292808081725
45.3431361950185
47.0345617604757
48.7954915950234
50.6186724440695
52.4976189936268
54.4265560181792
56.4003546088143
58.4144673860851
60.4648658313239
62.5479815821422
64.6606526413088
66.8000748502575
68.9637585982667
71.1494905111765
73.3552997403732
75.5794284180557
77.8203058333749
80.0765258986677
82.3468275041607
84.6300773956872
86.9252552484029
89.2314406473413
91.5478017212866
93.8735852090459
96.2081077664456
98.5507483482495
100.900941521871
103.258171589468
105.621967412087
36
36.0867011515323
36.3455636907725
36.7729520163938
37.3630833845388
38.1083980245825
39
40.0281151192509
41.182520563948
42.4529150942547
43.8292140016223
45.3017659699928
46.8614980554399
48.5
50.2095608425328
51.9831703534904
53.8144961882948
55.6978455597701
57.6281181368956
59.6007550287746
61.6116872029975
63.6572855217688
65.7343137181792
67.8398850234875
69.9714227381436
72.1266247650616
74.3034319530397
76.5
78.7146746166177
80.9459696340713
83.1925477431723
85.4532035678008
87.7268487978452
90.012499132065
92.3092628071528
94.6163305143462
96.9329665284211
99.2585008953893
101.59232254457
103.93387320792
106.282642044691
38
38.0821480486592
38.3275357934736
38.7330608137286
39.293765408777
40.0031248779392
40.853396431631
41.8359892915179
42.9418211071678
44.1616349335031
45.4862616621766
46.9068225314826
48.4148737476408
50.0024999375031
51.662365412358
53.3877326733399
55.1724568965349
57.0109638578405
58.8982172905089
60.8296802556121
62.8012738724303
64.8093357472517
66.8505796534331
68.9220574272127
71.0211236182588
73.1454031364924
75.2927619363243
77.4612806503998
79.6492310069595
81.8550548225337
84.0773453434396
86.314830707127
88.5663593019381
90.8308868172055
93.1074647920348
95.3952304887409
97.6933979345585
100.001249992188
102.318131335556
104.64344222167
106.976632962531
40
40.0780488547035
40.3112887414927
40.6970514902493
41.2310562561766
41.9076365356005
42.7200187265877
43.6606229914325
44.7213595499958
45.8938993767146
47.169905660283
48.541219597369
50
51.5388203202208
53.1507290636732
54.8292804986533
56.5685424949238
58.3630876496438
60.2079728939615
62.0987117418711
64.0312423743285
66.0018939122204
68.0073525436772
70.0446286306095
72.1110255092798
74.2041103982792
76.3216876123687
78.4617741323761
80.6225774829855
82.802475808396
85
87.213817712562
89.4427190999916
91.6856041044612
93.9414711402797
96.2094070244693
98.488578017961
100.778221853732
103.077640640442
105.38619454179
107.70329614269
42
42.0743389728229
42.2965719651132
42.6643879599837
43.1740662898458
43.820657229211
44.5982062419555
45.5
46.518813398452
47.6471405228058
48.8773976393997
50.2020915898929
51.6139516022558
53.1060260234185
54.6717477313466
56.3049731373704
58
59.7515690170559
61.5548535860496
63.4054414068698
65.299310869258
67.2328044930449
69.2026011071838
71.2056879750487
73.2393336944022
75.3010624095039
77.3886296557834
79.5
81.6333265278342
83.7869321553188
85.9592926913664
88.1490215487387
90.3548559846121
92.5756447452568
94.8103369891701
97.0579723670343
99.3176721434811
101.588631253699
103.870111196629
106.161433675323
108.46197490365
44
44.0709654988406
44.2831796509691
44.6346278129436
45.1220566907139
45.7411193566576
46.4865571966778
47.3524022621873
48.3321838943783
49.4191258522447
50.60632371552
51.8868962263113
53.2541078227774
54.7014625033006
56.2227711874824
57.8121959451464
59.464274989274
61.1739323568462
62.9364759102383
64.7475868276185
66.6033032213869
68.5
70.4343666117613
72.4033838988206
74.4043009509531
76.4346125783339
78.4920378127616
80.5744996881768
82.6801064343775
84.8071341338687
86.9540108333135
89.119302061899
91.3016976841066
93.5
95.7131129992124
97.9400326730597
100.179838290946
102.431684551217
104.694794521982
106.968453293483
109.252002269981
46
46.0678846920498
46.2709412050371
46.6074028454708
47.0744091837593
47.6681235208604
48.3838816136118
49.2163590689112
50.1597448159378
51.2079095453036
52.3545604508337
53.5933764564242
54.9181208709839
56.3227307576612
57.8013840664737
59.3485467387366
60.9590026165127
62.6278691957502
64.3506021727847
66.1229914628792
67.9411510058521
69.8015042817846
71.7007670809734
73.6359287304778
75.6042326857432
77.6031571522706
79.6303962064738
81.6838417313975
83.7615663654877
85.8618075747302
87.9829528942965
90.1235263402404
92.2821759604746
94.4576624737242
96.6488489326179
98.8546913403709
101.074230147946
103.306582558906
105.55093557141
107.806539690317
110.072703246536
48
48.065060074861
48.2597140480546
48.5824042221049
49.0306026885251
49.6009072497671
50.2891638427206
51.0906057901059
52
53.0117911412169
54.1202365109392
55.3195263898743
56.6038867923396
57.9676633995196
59.4053869611166
60.9118215127409
62.4819974072532
64.1112314653213
65.7951365983839
67.5296231294089
69.3108938046538
71.1354342082763
73
74.9016021190468
76.8374908491942
78.805139426309
80.802227692063
82.8266261536711
84.8763806956918
86.9496981018336
89.044932477935
91.1605726177716
93.2952303175248
95.4476296195982
97.6165969494942
99.8010520986628
102
104.212523239772
106.437775249204
108.67497412008
110.923396990896
50
50.062460986252
50.2493781056045
50.5593710403917
50.9901951359278
51.5388203202208
52.2015325445527
52.9740502510427
53.851648071345
54.8292804986533
55.9016994374947
57.0635610525666
58.309518948453
59.6343022093828
61.0327780786685
62.5
64.0312423743285
65.6220237420334
67.2681202353686
68.9655711206686
70.7106781186548
72.5
74.3303437365925
76.1987532706409
78.1024967590665
80.0390529679106
82.0060973342836
84.0014880820572
86.0232526704263
88.0695747690427
90.1387818865997
92.2293337284836
94.339811320566
96.4689069078737
98.6154146165801
100.778221853732
102.95630140987
105.148704224065
107.354552767919
109.573035004056
111.803398874989

